 Entering Gaussian System, Link 0=g09
 Input=ru_znphos_co2_trans_bs2.com
 Output=ru_znphos_co2_trans_bs2.log
 Initial command:
 /home/programs/G09_D/g09/l1.exe "/state/partition1/stuart_2020-04-11-1414_14034/Gau-21282.inp" -scrdir="/state/partition1/stuart_2020-04-11-1414_14034/"
 Entering Link 1 = /home/programs/G09_D/g09/l1.exe PID=     21283.
  
 Copyright (c) 1988,1990,1992,1993,1995,1998,2003,2009,2013,
            Gaussian, Inc.  All Rights Reserved.
  
 This is part of the Gaussian(R) 09 program.  It is based on
 the Gaussian(R) 03 system (copyright 2003, Gaussian, Inc.),
 the Gaussian(R) 98 system (copyright 1998, Gaussian, Inc.),
 the Gaussian(R) 94 system (copyright 1995, Gaussian, Inc.),
 the Gaussian 92(TM) system (copyright 1992, Gaussian, Inc.),
 the Gaussian 90(TM) system (copyright 1990, Gaussian, Inc.),
 the Gaussian 88(TM) system (copyright 1988, Gaussian, Inc.),
 the Gaussian 86(TM) system (copyright 1986, Carnegie Mellon
 University), and the Gaussian 82(TM) system (copyright 1983,
 Carnegie Mellon University). Gaussian is a federally registered
 trademark of Gaussian, Inc.
  
 This software contains proprietary and confidential information,
 including trade secrets, belonging to Gaussian, Inc.
  
 This software is provided under written license and may be
 used, copied, transmitted, or stored only in accord with that
 written license.
  
 The following legend is applicable only to US Government
 contracts under FAR:
  
                    RESTRICTED RIGHTS LEGEND
  
 Use, reproduction and disclosure by the US Government is
 subject to restrictions as set forth in subparagraphs (a)
 and (c) of the Commercial Computer Software - Restricted
 Rights clause in FAR 52.227-19.
  
 Gaussian, Inc.
 340 Quinnipiac St., Bldg. 40, Wallingford CT 06492
  
  
 ---------------------------------------------------------------
 Warning -- This program may not be used in any manner that
 competes with the business of Gaussian, Inc. or will provide
 assistance to any competitor of Gaussian, Inc.  The licensee
 of this program is prohibited from giving any competitor of
 Gaussian, Inc. access to this program.  By using this program,
 the user acknowledges that Gaussian, Inc. is engaged in the
 business of creating and licensing software in the field of
 computational chemistry and represents and warrants to the
 licensee that it is not a competitor of Gaussian, Inc. and that
 it will not use this program in any manner prohibited above.
 ---------------------------------------------------------------
  

 Cite this work as:
 Gaussian 09, Revision D.01,
 M. J. Frisch, G. W. Trucks, H. B. Schlegel, G. E. Scuseria, 
 M. A. Robb, J. R. Cheeseman, G. Scalmani, V. Barone, B. Mennucci, 
 G. A. Petersson, H. Nakatsuji, M. Caricato, X. Li, H. P. Hratchian, 
 A. F. Izmaylov, J. Bloino, G. Zheng, J. L. Sonnenberg, M. Hada, 
 M. Ehara, K. Toyota, R. Fukuda, J. Hasegawa, M. Ishida, T. Nakajima, 
 Y. Honda, O. Kitao, H. Nakai, T. Vreven, J. A. Montgomery, Jr., 
 J. E. Peralta, F. Ogliaro, M. Bearpark, J. J. Heyd, E. Brothers, 
 K. N. Kudin, V. N. Staroverov, T. Keith, R. Kobayashi, J. Normand, 
 K. Raghavachari, A. Rendell, J. C. Burant, S. S. Iyengar, J. Tomasi, 
 M. Cossi, N. Rega, J. M. Millam, M. Klene, J. E. Knox, J. B. Cross, 
 V. Bakken, C. Adamo, J. Jaramillo, R. Gomperts, R. E. Stratmann, 
 O. Yazyev, A. J. Austin, R. Cammi, C. Pomelli, J. W. Ochterski, 
 R. L. Martin, K. Morokuma, V. G. Zakrzewski, G. A. Voth, 
 P. Salvador, J. J. Dannenberg, S. Dapprich, A. D. Daniels, 
 O. Farkas, J. B. Foresman, J. V. Ortiz, J. Cioslowski, 
 and D. J. Fox, Gaussian, Inc., Wallingford CT, 2013.
 
 ******************************************
 Gaussian 09:  EM64L-G09RevD.01 24-Apr-2013
                11-Apr-2020 
 ******************************************
 %nproc=8
 Will use up to    8 processors via shared memory.
 %mem=14GB
 ------------------------------------
 # gen bp86 int=ultrafine pseudo=read
 ------------------------------------
 1/38=1/1;
 2/12=2,17=6,18=5,40=1/2;
 3/5=7,11=2,16=1,17=8,25=1,30=1,74=404,75=-5/1,2,3;
 4//1;
 5/5=2,38=5/2;
 6/7=2,8=2,9=2,10=2,28=1/1;
 99/5=1,9=1/99;
 -------------------------------
 Ru (PPh3)3 H4 from high temp MD
 -------------------------------
 Symbolic Z-matrix:
 Charge =  0 Multiplicity = 1
 Ru                    0.       -0.55031   0.00025 
 Zn                    0.00002   2.06958  -0.00069 
 P                     2.36563  -0.30195  -0.05785 
 P                    -2.36563  -0.30188   0.05811 
 O                     0.06442   0.31185   2.958 
 O                    -0.06438   0.30948  -2.95822 
 C                     0.04001  -0.11285   1.86083 
 C                    -0.03999  -0.11423  -1.86066 
 C                     1.87202   2.4575   -0.54222 
 C                     2.8359    1.41362  -0.64627 
 C                     4.13363   1.65024  -1.14923 
 H                     4.852     0.82787  -1.23958 
 C                     4.50711   2.9413   -1.55247 
 H                     5.51202   3.11978  -1.9503 
 C                     3.58495   3.99413  -1.44729 
 H                     3.8685    5.00502  -1.76266 
 C                     2.29421   3.74704  -0.94925 
 H                     1.58997   4.58624  -0.88989 
 C                    -1.87201   2.45792   0.54045 
 C                    -2.2942    3.74777   0.9465 
 H                    -1.58994   4.58692   0.88659 
 C                    -3.58498   3.99525   1.44425 
 H                    -3.86854   5.00638   1.75885 
 C                    -4.50718   2.94252   1.55012 
 H                    -5.51212   3.12132   1.94773 
 C                    -4.13369   1.65116   1.14786 
 H                    -4.85208   0.82888   1.23876 
 C                    -2.83591   1.41414   0.6452 
 C                     3.22307  -0.47741   1.59172 
 C                     3.9984    0.55023   2.16185 
 H                     4.13369   1.49343   1.62412 
 C                     4.59516   0.36756   3.42208 
 H                     5.19089   1.17577   3.85948 
 C                     4.42823  -0.8396    4.1165 
 H                     4.89367  -0.97836   5.09793 
 C                     3.6556   -1.86943   3.55127 
 H                     3.51735  -2.81302   4.08974 
 C                     3.05129  -1.6875    2.29978 
 H                     2.43778  -2.48734   1.86864 
 C                     3.35815  -1.49177  -1.10974 
 C                     4.69763  -1.81624  -0.80004 
 H                     5.17279  -1.38458   0.08666 
 C                     5.42133  -2.70128  -1.61488 
 H                     6.45935  -2.94317  -1.36268 
 C                     4.81677  -3.2779   -2.7436 
 H                     5.38157  -3.97115  -3.3757 
 C                     3.48254  -2.9691   -3.05264 
 H                     3.0002   -3.42122  -3.92566 
 C                     2.75593  -2.08551  -2.23909 
 H                     1.71262  -1.86046  -2.47862 
 C                    -3.22299  -0.4786   -1.59136 
 C                    -3.99828   0.54862  -2.16232 
 H                    -4.1336    1.49222  -1.62531 
 C                    -4.59496   0.365    -3.42245 
 H                    -5.19065   1.17288  -3.8605 
 C                    -4.42798  -0.84269  -4.11595 
 H                    -4.89336  -0.98219  -5.0973 
 C                    -3.6554   -1.8721   -3.54989 
 H                    -3.51712  -2.81609  -4.08764 
 C                    -3.05117  -1.68922  -2.2985 
 H                    -2.43769  -2.48874  -1.86672 
 C                    -3.35824  -1.49089   1.11085 
 C                    -4.69761  -1.8158    0.80115 
 H                    -5.17262  -1.38499  -0.08605 
 C                    -5.42138  -2.7002    1.61661 
 H                    -6.45931  -2.94245   1.3644 
 C                    -4.817    -3.27575   2.74598 
 H                    -5.38185  -3.96851   3.37857 
 C                    -3.48286  -2.96653   3.05502 
 H                    -3.00067  -3.41782   3.92855 
 C                    -2.75618  -2.08358   2.24084 
 H                    -1.71295  -1.85821   2.4804 
 
 Stoichiometry    C38H28O2P2RuZn
 Framework group  C1[X(C38H28O2P2RuZn)]
 Deg. of freedom   210
 Full point group                 C1      NOp   1
 Largest Abelian subgroup         C1      NOp   1
 Largest concise Abelian subgroup C1      NOp   1
                         Standard orientation:                         
 ---------------------------------------------------------------------
 Center     Atomic      Atomic             Coordinates (Angstroms)
 Number     Number       Type             X           Y           Z
 ---------------------------------------------------------------------
      1         44           0       -0.000001   -0.550311    0.000249
      2         30           0        0.000020    2.069579   -0.000691
      3         15           0        2.365629   -0.301952   -0.057851
      4         15           0       -2.365631   -0.301880    0.058109
      5          8           0        0.064419    0.311849    2.957999
      6          8           0       -0.064381    0.309479   -2.958221
      7          6           0        0.040009   -0.112851    1.860829
      8          6           0       -0.039991   -0.114231   -1.860661
      9          6           0        1.872020    2.457499   -0.542221
     10          6           0        2.835900    1.413618   -0.646271
     11          6           0        4.133630    1.650238   -1.149231
     12          1           0        4.851999    0.827868   -1.239581
     13          6           0        4.507110    2.941298   -1.552471
     14          1           0        5.512020    3.119777   -1.950301
     15          6           0        3.584950    3.994128   -1.447291
     16          1           0        3.868501    5.005018   -1.762661
     17          6           0        2.294210    3.747038   -0.949251
     18          1           0        1.589971    4.586239   -0.889891
     19          6           0       -1.872010    2.457920    0.540449
     20          6           0       -2.294200    3.747770    0.946499
     21          1           0       -1.589939    4.586920    0.886589
     22          6           0       -3.584980    3.995250    1.444249
     23          1           0       -3.868539    5.006381    1.758849
     24          6           0       -4.507180    2.942521    1.550119
     25          1           0       -5.512120    3.121321    1.947729
     26          6           0       -4.133690    1.651161    1.147859
     27          1           0       -4.852081    0.828881    1.238759
     28          6           0       -2.835910    1.414140    0.645199
     29          6           0        3.223069   -0.477412    1.591719
     30          6           0        3.998399    0.550228    2.161849
     31          1           0        4.133690    1.493428    1.624119
     32          6           0        4.595159    0.367558    3.422079
     33          1           0        5.190889    1.175767    3.859479
     34          6           0        4.428229   -0.839602    4.116499
     35          1           0        4.893669   -0.978362    5.097929
     36          6           0        3.655598   -1.869432    3.551269
     37          1           0        3.517348   -2.813022    4.089739
     38          6           0        3.051289   -1.687502    2.299779
     39          1           0        2.437778   -2.487342    1.868639
     40          6           0        3.358149   -1.491772   -1.109741
     41          6           0        4.697628   -1.816242   -0.800041
     42          1           0        5.172789   -1.384583    0.086659
     43          6           0        5.421328   -2.701283   -1.614881
     44          1           0        6.459348   -2.943173   -1.362681
     45          6           0        4.816768   -3.277902   -2.743601
     46          1           0        5.381568   -3.971153   -3.375701
     47          6           0        3.482538   -2.969102   -3.052641
     48          1           0        3.000198   -3.421222   -3.925661
     49          6           0        2.755928   -2.085512   -2.239091
     50          1           0        1.712618   -1.860461   -2.478621
     51          6           0       -3.222991   -0.478600   -1.591361
     52          6           0       -3.998281    0.548621   -2.162321
     53          1           0       -4.133600    1.492221   -1.625311
     54          6           0       -4.594961    0.365001   -3.422451
     55          1           0       -5.190651    1.172881   -3.860501
     56          6           0       -4.427981   -0.842689   -4.115951
     57          1           0       -4.893361   -0.982189   -5.097301
     58          6           0       -3.655402   -1.872099   -3.549891
     59          1           0       -3.517122   -2.816090   -4.087641
     60          6           0       -3.051171   -1.689220   -2.298501
     61          1           0       -2.437692   -2.488740   -1.866721
     62          6           0       -3.358241   -1.490890    1.110849
     63          6           0       -4.697612   -1.815799    0.801149
     64          1           0       -5.172621   -1.384989   -0.086051
     65          6           0       -5.421382   -2.700199    1.616609
     66          1           0       -6.459312   -2.942449    1.364399
     67          6           0       -4.817002   -3.275749    2.745979
     68          1           0       -5.381852   -3.968509    3.378569
     69          6           0       -3.482862   -2.966530    3.055019
     70          1           0       -3.000672   -3.417820    3.928549
     71          6           0       -2.756182   -2.083580    2.240839
     72          1           0       -1.712952   -1.858210    2.480399
 ---------------------------------------------------------------------
 Rotational constants (GHZ):      0.0921767      0.0512210      0.0506069
 General basis read from cards:  (5D, 7F)
 ======================================================================================================
                                       Pseudopotential Parameters
 ======================================================================================================
  Center     Atomic      Valence      Angular      Power
  Number     Number     Electrons     Momentum     of R      Exponent        Coefficient   SO-Coeffient
 ======================================================================================================
    1         44           16
                                      G and up 
                                                     2        1.0000000        0.00000000    0.00000000
                                      S - G
                                                     2       11.1052690      209.82297100    0.00000000
                                                     2        5.4147450       30.65472600    0.00000000
                                      P - G
                                                     2        9.7712710      146.33618200    0.00000000
                                                     2        5.0739910       24.12787700    0.00000000
                                      D - G
                                                     2        7.6714230       67.51589700    0.00000000
                                                     2        4.1365650        9.87010400    0.00000000
                                      F - G
                                                     2       11.3600000      -28.34061600    0.00000000
                                                     2        5.6800000       -4.94462900    0.00000000
    2         30
                                   No pseudopotential on this center.
    3         15
                                   No pseudopotential on this center.
    4         15
                                   No pseudopotential on this center.
    5          8
                                   No pseudopotential on this center.
    6          8
                                   No pseudopotential on this center.
    7          6
                                   No pseudopotential on this center.
    8          6
                                   No pseudopotential on this center.
    9          6
                                   No pseudopotential on this center.
   10          6
                                   No pseudopotential on this center.
   11          6
                                   No pseudopotential on this center.
   12          1
                                   No pseudopotential on this center.
   13          6
                                   No pseudopotential on this center.
   14          1
                                   No pseudopotential on this center.
   15          6
                                   No pseudopotential on this center.
   16          1
                                   No pseudopotential on this center.
   17          6
                                   No pseudopotential on this center.
   18          1
                                   No pseudopotential on this center.
   19          6
                                   No pseudopotential on this center.
   20          6
                                   No pseudopotential on this center.
   21          1
                                   No pseudopotential on this center.
   22          6
                                   No pseudopotential on this center.
   23          1
                                   No pseudopotential on this center.
   24          6
                                   No pseudopotential on this center.
   25          1
                                   No pseudopotential on this center.
   26          6
                                   No pseudopotential on this center.
   27          1
                                   No pseudopotential on this center.
   28          6
                                   No pseudopotential on this center.
   29          6
                                   No pseudopotential on this center.
   30          6
                                   No pseudopotential on this center.
   31          1
                                   No pseudopotential on this center.
   32          6
                                   No pseudopotential on this center.
   33          1
                                   No pseudopotential on this center.
   34          6
                                   No pseudopotential on this center.
   35          1
                                   No pseudopotential on this center.
   36          6
                                   No pseudopotential on this center.
   37          1
                                   No pseudopotential on this center.
   38          6
                                   No pseudopotential on this center.
   39          1
                                   No pseudopotential on this center.
   40          6
                                   No pseudopotential on this center.
   41          6
                                   No pseudopotential on this center.
   42          1
                                   No pseudopotential on this center.
   43          6
                                   No pseudopotential on this center.
   44          1
                                   No pseudopotential on this center.
   45          6
                                   No pseudopotential on this center.
   46          1
                                   No pseudopotential on this center.
   47          6
                                   No pseudopotential on this center.
   48          1
                                   No pseudopotential on this center.
   49          6
                                   No pseudopotential on this center.
   50          1
                                   No pseudopotential on this center.
   51          6
                                   No pseudopotential on this center.
   52          6
                                   No pseudopotential on this center.
   53          1
                                   No pseudopotential on this center.
   54          6
                                   No pseudopotential on this center.
   55          1
                                   No pseudopotential on this center.
   56          6
                                   No pseudopotential on this center.
   57          1
                                   No pseudopotential on this center.
   58          6
                                   No pseudopotential on this center.
   59          1
                                   No pseudopotential on this center.
   60          6
                                   No pseudopotential on this center.
   61          1
                                   No pseudopotential on this center.
   62          6
                                   No pseudopotential on this center.
   63          6
                                   No pseudopotential on this center.
   64          1
                                   No pseudopotential on this center.
   65          6
                                   No pseudopotential on this center.
   66          1
                                   No pseudopotential on this center.
   67          6
                                   No pseudopotential on this center.
   68          1
                                   No pseudopotential on this center.
   69          6
                                   No pseudopotential on this center.
   70          1
                                   No pseudopotential on this center.
   71          6
                                   No pseudopotential on this center.
   72          1
                                   No pseudopotential on this center.
 ======================================================================================================
 There are  1793 symmetry adapted cartesian basis functions of A   symmetry.
 There are  1570 symmetry adapted basis functions of A   symmetry.
  1570 basis functions,  2575 primitive gaussians,  1793 cartesian basis functions
   174 alpha electrons      174 beta electrons
       nuclear repulsion energy      6714.6951999286 Hartrees.
 NAtoms=   72 NActive=   72 NUniq=   72 SFac= 1.00D+00 NAtFMM=   60 NAOKFM=T Big=T
 Integral buffers will be    131072 words long.
 Raffenetti 2 integral format.
 Two-electron integral symmetry is turned on.
 One-electron integrals computed using PRISM.
   1 Symmetry operations used in ECPInt.
 ECPInt:  NShTT=  185136 NPrTT=  583765 LenC2=  140434 LenP2D=  287630.
 LDataN:  DoStor=T MaxTD1= 7 Len=  274
 NBasis=  1570 RedAO= T EigKep=  6.00D-06  NBF=  1570
 NBsUse=  1570 1.00D-06 EigRej= -1.00D+00 NBFU=  1570
 Defaulting to unpruned grid for atomic number  44.
 ExpMin= 3.70D-02 ExpMax= 4.06D+05 ExpMxC= 3.92D+03 IAcc=3 IRadAn=         5 AccDes= 0.00D+00
 Harris functional with IExCor=  404 and IRadAn=       5 diagonalized for initial guess.
 HarFok:  IExCor=  404 AccDes= 0.00D+00 IRadAn=         5 IDoV= 1 UseB2=F ITyADJ=14
 ICtDFT=  3500011 ScaDFX=  1.000000  1.000000  1.000000  1.000000
 Defaulting to unpruned grid for atomic number  44.
 Defaulting to unpruned grid for atomic number  44.
 Defaulting to unpruned grid for atomic number  44.
 Defaulting to unpruned grid for atomic number  44.
 Defaulting to unpruned grid for atomic number  44.
 Defaulting to unpruned grid for atomic number  44.
 Defaulting to unpruned grid for atomic number  44.
 Defaulting to unpruned grid for atomic number  44.
 FoFCou: FMM=F IPFlag=           0 FMFlag=      100000 FMFlg1=        2001
         NFxFlg=           0 DoJE=T BraDBF=F KetDBF=T FulRan=T
         wScrn=  0.000000 ICntrl=     500 IOpCl=  0 I1Cent=   200000004 NGrid=           0
         NMat0=    1 NMatS0=      1 NMatT0=    0 NMatD0=    1 NMtDS0=    0 NMtDT0=    0
 Petite list used in FoFCou.
 Requested convergence on RMS density matrix=1.00D-08 within 128 cycles.
 Requested convergence on MAX density matrix=1.00D-06.
 Requested convergence on             energy=1.00D-06.
 No special actions if energy rises.
 Defaulting to unpruned grid for atomic number  44.
 Defaulting to unpruned grid for atomic number  44.
 Defaulting to unpruned grid for atomic number  44.
 Defaulting to unpruned grid for atomic number  44.
 Defaulting to unpruned grid for atomic number  44.
 Defaulting to unpruned grid for atomic number  44.
 Defaulting to unpruned grid for atomic number  44.
 Defaulting to unpruned grid for atomic number  44.
 EnCoef did     8 forward-backward iterations
 EnCoef did     5 forward-backward iterations
 EnCoef did     8 forward-backward iterations
 EnCoef did     2 forward-backward iterations
 SCF Done:  E(RB-P86) =  -4173.53715135     A.U. after   19 cycles
            NFock= 19  Conv=0.68D-08     -V/T= 2.0182

 **********************************************************************

            Population analysis using the SCF density.

 **********************************************************************

 Orbital symmetries:
       Occupied  (A) (A) (A) (A) (A) (A) (A) (A) (A) (A) (A) (A)
                 (A) (A) (A) (A) (A) (A) (A) (A) (A) (A) (A) (A)
                 (A) (A) (A) (A) (A) (A) (A) (A) (A) (A) (A) (A)
                 (A) (A) (A) (A) (A) (A) (A) (A) (A) (A) (A) (A)
                 (A) (A) (A) (A) (A) (A) (A) (A) (A) (A) (A) (A)
                 (A) (A) (A) (A) (A) (A) (A) (A) (A) (A) (A) (A)
                 (A) (A) (A) (A) (A) (A) (A) (A) (A) (A) (A) (A)
                 (A) (A) (A) (A) (A) (A) (A) (A) (A) (A) (A) (A)
                 (A) (A) (A) (A) (A) (A) (A) (A) (A) (A) (A) (A)
                 (A) (A) (A) (A) (A) (A) (A) (A) (A) (A) (A) (A)
                 (A) (A) (A) (A) (A) (A) (A) (A) (A) (A) (A) (A)
                 (A) (A) (A) (A) (A) (A) (A) (A) (A) (A) (A) (A)
                 (A) (A) (A) (A) (A) (A) (A) (A) (A) (A) (A) (A)
                 (A) (A) (A) (A) (A) (A) (A) (A) (A) (A) (A) (A)
                 (A) (A) (A) (A) (A) (A)
       Virtual   (A) (A) (A) (A) (A) (A) (A) (A) (A) (A) (A) (A)
                 (A) (A) (A) (A) (A) (A) (A) (A) (A) (A) (A) (A)
                 (A) (A) (A) (A) (A) (A) (A) (A) (A) (A) (A) (A)
                 (A) (A) (A) (A) (A) (A) (A) (A) (A) (A) (A) (A)
                 (A) (A) (A) (A) (A) (A) (A) (A) (A) (A) (A) (A)
                 (A) (A) (A) (A) (A) (A) (A) (A) (A) (A) (A) (A)
                 (A) (A) (A) (A) (A) (A) (A) (A) (A) (A) (A) (A)
                 (A) (A) (A) (A) (A) (A) (A) (A) (A) (A) (A) (A)
                 (A) (A) (A) (A) (A) (A) (A) (A) (A) (A) (A) (A)
                 (A) (A) (A) (A) (A) (A) (A) (A) (A) (A) (A) (A)
                 (A) (A) (A) (A) (A) (A) (A) (A) (A) (A) (A) (A)
                 (A) (A) (A) (A) (A) (A) (A) (A) (A) (A) (A) (A)
                 (A) (A) (A) (A) (A) (A) (A) (A) (A) (A) (A) (A)
                 (A) (A) (A) (A) (A) (A) (A) (A) (A) (A) (A) (A)
                 (A) (A) (A) (A) (A) (A) (A) (A) (A) (A) (A) (A)
                 (A) (A) (A) (A) (A) (A) (A) (A) (A) (A) (A) (A)
                 (A) (A) (A) (A) (A) (A) (A) (A) (A) (A) (A) (A)
                 (A) (A) (A) (A) (A) (A) (A) (A) (A) (A) (A) (A)
                 (A) (A) (A) (A) (A) (A) (A) (A) (A) (A) (A) (A)
                 (A) (A) (A) (A) (A) (A) (A) (A) (A) (A) (A) (A)
                 (A) (A) (A) (A) (A) (A) (A) (A) (A) (A) (A) (A)
                 (A) (A) (A) (A) (A) (A) (A) (A) (A) (A) (A) (A)
                 (A) (A) (A) (A) (A) (A) (A) (A) (A) (A) (A) (A)
                 (A) (A) (A) (A) (A) (A) (A) (A) (A) (A) (A) (A)
                 (A) (A) (A) (A) (A) (A) (A) (A) (A) (A) (A) (A)
                 (A) (A) (A) (A) (A) (A) (A) (A) (A) (A) (A) (A)
                 (A) (A) (A) (A) (A) (A) (A) (A) (A) (A) (A) (A)
                 (A) (A) (A) (A) (A) (A) (A) (A) (A) (A) (A) (A)
                 (A) (A) (A) (A) (A) (A) (A) (A) (A) (A) (A) (A)
                 (A) (A) (A) (A) (A) (A) (A) (A) (A) (A) (A) (A)
                 (A) (A) (A) (A) (A) (A) (A) (A) (A) (A) (A) (A)
                 (A) (A) (A) (A) (A) (A) (A) (A) (A) (A) (A) (A)
                 (A) (A) (A) (A) (A) (A) (A) (A) (A) (A) (A) (A)
                 (A) (A) (A) (A) (A) (A) (A) (A) (A) (A) (A) (A)
                 (A) (A) (A) (A) (A) (A) (A) (A) (A) (A) (A) (A)
                 (A) (A) (A) (A) (A) (A) (A) (A) (A) (A) (A) (A)
                 (A) (A) (A) (A) (A) (A) (A) (A) (A) (A) (A) (A)
                 (A) (A) (A) (A) (A) (A) (A) (A) (A) (A) (A) (A)
                 (A) (A) (A) (A) (A) (A) (A) (A) (A) (A) (A) (A)
                 (A) (A) (A) (A) (A) (A) (A) (A) (A) (A) (A) (A)
                 (A) (A) (A) (A) (A) (A) (A) (A) (A) (A) (A) (A)
                 (A) (A) (A) (A) (A) (A) (A) (A) (A) (A) (A) (A)
                 (A) (A) (A) (A) (A) (A) (A) (A) (A) (A) (A) (A)
                 (A) (A) (A) (A) (A) (A) (A) (A) (A) (A) (A) (A)
                 (A) (A) (A) (A) (A) (A) (A) (A) (A) (A) (A) (A)
                 (A) (A) (A) (A) (A) (A) (A) (A) (A) (A) (A) (A)
                 (A) (A) (A) (A) (A) (A) (A) (A) (A) (A) (A) (A)
                 (A) (A) (A) (A) (A) (A) (A) (A) (A) (A) (A) (A)
                 (A) (A) (A) (A) (A) (A) (A) (A) (A) (A) (A) (A)
                 (A) (A) (A) (A) (A) (A) (A) (A) (A) (A) (A) (A)
                 (A) (A) (A) (A) (A) (A) (A) (A) (A) (A) (A) (A)
                 (A) (A) (A) (A) (A) (A) (A) (A) (A) (A) (A) (A)
                 (A) (A) (A) (A) (A) (A) (A) (A) (A) (A) (A) (A)
                 (A) (A) (A) (A) (A) (A) (A) (A) (A) (A) (A) (A)
                 (A) (A) (A) (A) (A) (A) (A) (A) (A) (A) (A) (A)
                 (A) (A) (A) (A) (A) (A) (A) (A) (A) (A) (A) (A)
                 (A) (A) (A) (A) (A) (A) (A) (A) (A) (A) (A) (A)
                 (A) (A) (A) (A) (A) (A) (A) (A) (A) (A) (A) (A)
                 (A) (A) (A) (A) (A) (A) (A) (A) (A) (A) (A) (A)
                 (A) (A) (A) (A) (A) (A) (A) (A) (A) (A) (A) (A)
                 (A) (A) (A) (A) (A) (A) (A) (A) (A) (A) (A) (A)
                 (A) (A) (A) (A) (A) (A) (A) (A) (A) (A) (A) (A)
                 (A) (A) (A) (A) (A) (A) (A) (A) (A) (A) (A) (A)
                 (A) (A) (A) (A) (A) (A) (A) (A) (A) (A) (A) (A)
                 (A) (A) (A) (A) (A) (A) (A) (A) (A) (A) (A) (A)
                 (A) (A) (A) (A) (A) (A) (A) (A) (A) (A) (A) (A)
                 (A) (A) (A) (A) (A) (A) (A) (A) (A) (A) (A) (A)
                 (A) (A) (A) (A) (A) (A) (A) (A) (A) (A) (A) (A)
                 (A) (A) (A) (A) (A) (A) (A) (A) (A) (A) (A) (A)
                 (A) (A) (A) (A) (A) (A) (A) (A) (A) (A) (A) (A)
                 (A) (A) (A) (A) (A) (A) (A) (A) (A) (A) (A) (A)
                 (A) (A) (A) (A) (A) (A) (A) (A) (A) (A) (A) (A)
                 (A) (A) (A) (A) (A) (A) (A) (A) (A) (A) (A) (A)
                 (A) (A) (A) (A) (A) (A) (A) (A) (A) (A) (A) (A)
                 (A) (A) (A) (A) (A) (A) (A) (A) (A) (A) (A) (A)
                 (A) (A) (A) (A) (A) (A) (A) (A) (A) (A) (A) (A)
                 (A) (A) (A) (A) (A) (A) (A) (A) (A) (A) (A) (A)
                 (A) (A) (A) (A) (A) (A) (A) (A) (A) (A) (A) (A)
                 (A) (A) (A) (A) (A) (A) (A) (A) (A) (A) (A) (A)
                 (A) (A) (A) (A) (A) (A) (A) (A) (A) (A) (A) (A)
                 (A) (A) (A) (A) (A) (A) (A) (A) (A) (A) (A) (A)
                 (A) (A) (A) (A) (A) (A) (A) (A) (A) (A) (A) (A)
                 (A) (A) (A) (A) (A) (A) (A) (A) (A) (A) (A) (A)
                 (A) (A) (A) (A) (A) (A) (A) (A) (A) (A) (A) (A)
                 (A) (A) (A) (A) (A) (A) (A) (A) (A) (A) (A) (A)
                 (A) (A) (A) (A) (A) (A) (A) (A) (A) (A) (A) (A)
                 (A) (A) (A) (A) (A) (A) (A) (A) (A) (A) (A) (A)
                 (A) (A) (A) (A) (A) (A) (A) (A) (A) (A) (A) (A)
                 (A) (A) (A) (A) (A) (A) (A) (A) (A) (A) (A) (A)
                 (A) (A) (A) (A) (A) (A) (A) (A) (A) (A) (A) (A)
                 (A) (A) (A) (A) (A) (A) (A) (A) (A) (A) (A) (A)
                 (A) (A) (A) (A) (A) (A) (A) (A) (A) (A) (A) (A)
                 (A) (A) (A) (A) (A) (A) (A) (A) (A) (A) (A) (A)
                 (A) (A) (A) (A) (A) (A) (A) (A) (A) (A) (A) (A)
                 (A) (A) (A) (A) (A) (A) (A) (A) (A) (A) (A) (A)
                 (A) (A) (A) (A) (A) (A) (A) (A) (A) (A) (A) (A)
                 (A) (A) (A) (A) (A) (A) (A) (A) (A) (A) (A) (A)
                 (A) (A) (A) (A) (A) (A) (A) (A) (A) (A) (A) (A)
                 (A) (A) (A) (A) (A) (A) (A) (A) (A) (A) (A) (A)
                 (A) (A) (A) (A) (A) (A) (A) (A) (A) (A) (A) (A)
                 (A) (A) (A) (A) (A) (A) (A) (A) (A) (A) (A) (A)
                 (A) (A) (A) (A) (A) (A) (A) (A) (A) (A) (A) (A)
                 (A) (A) (A) (A) (A) (A) (A) (A) (A) (A) (A) (A)
                 (A) (A) (A) (A) (A) (A) (A) (A) (A) (A) (A) (A)
                 (A) (A) (A) (A) (A) (A) (A) (A) (A) (A) (A) (A)
                 (A) (A) (A) (A) (A) (A) (A) (A) (A) (A) (A) (A)
                 (A) (A) (A) (A) (A) (A) (A) (A) (A) (A) (A) (A)
                 (A) (A) (A) (A) (A) (A) (A) (A) (A) (A) (A) (A)
                 (A) (A) (A) (A) (A) (A) (A) (A) (A) (A) (A) (A)
                 (A) (A) (A) (A) (A) (A) (A) (A) (A) (A) (A) (A)
                 (A) (A) (A) (A) (A) (A) (A) (A) (A) (A) (A) (A)
                 (A) (A) (A) (A) (A) (A) (A) (A) (A) (A) (A) (A)
                 (A) (A) (A) (A) (A) (A) (A) (A) (A) (A) (A) (A)
                 (A) (A) (A) (A) (A) (A) (A) (A) (A) (A) (A) (A)
                 (A) (A) (A) (A) (A) (A) (A) (A) (A) (A) (A) (A)
                 (A) (A) (A) (A) (A) (A) (A) (A) (A) (A) (A) (A)
                 (A) (A) (A) (A)
 The electronic state is 1-A.
 Alpha  occ. eigenvalues -- -345.78259 -76.38355 -76.38355 -41.64400 -36.71161
 Alpha  occ. eigenvalues --  -36.70935 -36.70813 -18.81643 -18.81643  -9.98746
 Alpha  occ. eigenvalues --   -9.98745  -9.92535  -9.92535  -9.92211  -9.92211
 Alpha  occ. eigenvalues --   -9.91642  -9.91642  -9.91538  -9.91538  -9.91518
 Alpha  occ. eigenvalues --   -9.91518  -9.91451  -9.91450  -9.91446  -9.91446
 Alpha  occ. eigenvalues --   -9.91375  -9.91375  -9.91248  -9.91248  -9.91218
 Alpha  occ. eigenvalues --   -9.91218  -9.91211  -9.91211  -9.91201  -9.91201
 Alpha  occ. eigenvalues --   -9.91132  -9.91132  -9.90396  -9.90396  -9.90141
 Alpha  occ. eigenvalues --   -9.90141  -9.90034  -9.90034  -9.89613  -9.89612
 Alpha  occ. eigenvalues --   -9.88825  -9.88825  -6.33909  -6.33909  -4.58878
 Alpha  occ. eigenvalues --   -4.55573  -4.55573  -4.55504  -4.55504  -4.55235
 Alpha  occ. eigenvalues --   -4.55235  -3.02560  -3.02108  -3.01768  -2.85971
 Alpha  occ. eigenvalues --   -1.76007  -1.74415  -1.72337  -1.00467  -1.00455
 Alpha  occ. eigenvalues --   -0.78996  -0.78989  -0.78373  -0.78372  -0.76823
 Alpha  occ. eigenvalues --   -0.76794  -0.70716  -0.70658  -0.68600  -0.68598
 Alpha  occ. eigenvalues --   -0.68362  -0.68361  -0.68087  -0.68084  -0.66968
 Alpha  occ. eigenvalues --   -0.66956  -0.66371  -0.66209  -0.59777  -0.59526
 Alpha  occ. eigenvalues --   -0.55708  -0.55679  -0.55413  -0.55407  -0.54751
 Alpha  occ. eigenvalues --   -0.54713  -0.53867  -0.53806  -0.53193  -0.52930
 Alpha  occ. eigenvalues --   -0.51329  -0.50597  -0.50170  -0.48415  -0.47472
 Alpha  occ. eigenvalues --   -0.47279  -0.46566  -0.46372  -0.44749  -0.44251
 Alpha  occ. eigenvalues --   -0.41853  -0.41695  -0.41588  -0.41551  -0.41383
 Alpha  occ. eigenvalues --   -0.41203  -0.40964  -0.40633  -0.40610  -0.40376
 Alpha  occ. eigenvalues --   -0.40286  -0.39845  -0.39616  -0.39321  -0.38956
 Alpha  occ. eigenvalues --   -0.38790  -0.38769  -0.38712  -0.38426  -0.38247
 Alpha  occ. eigenvalues --   -0.38240  -0.38044  -0.38033  -0.37853  -0.37828
 Alpha  occ. eigenvalues --   -0.37526  -0.37176  -0.36823  -0.36511  -0.36507
 Alpha  occ. eigenvalues --   -0.35133  -0.34798  -0.34418  -0.34085  -0.34014
 Alpha  occ. eigenvalues --   -0.33627  -0.33555  -0.32886  -0.32705  -0.32329
 Alpha  occ. eigenvalues --   -0.32270  -0.31464  -0.31305  -0.31065  -0.31044
 Alpha  occ. eigenvalues --   -0.30539  -0.29910  -0.29674  -0.28604  -0.28591
 Alpha  occ. eigenvalues --   -0.26669  -0.26392  -0.24856  -0.24802  -0.24283
 Alpha  occ. eigenvalues --   -0.24257  -0.24040  -0.23919  -0.23561  -0.23197
 Alpha  occ. eigenvalues --   -0.22796  -0.22636  -0.22581  -0.22104  -0.22029
 Alpha  occ. eigenvalues --   -0.21233  -0.19992  -0.18236  -0.17378
 Alpha virt. eigenvalues --   -0.10219  -0.07475  -0.07127  -0.06738  -0.06710
 Alpha virt. eigenvalues --   -0.06375  -0.06034  -0.05669  -0.05587  -0.05271
 Alpha virt. eigenvalues --   -0.05016  -0.04849  -0.04525  -0.03635  -0.01557
 Alpha virt. eigenvalues --   -0.00668  -0.00441   0.00001   0.00900   0.01732
 Alpha virt. eigenvalues --    0.02451   0.02619   0.02831   0.02886   0.04072
 Alpha virt. eigenvalues --    0.04110   0.04116   0.05111   0.05114   0.05283
 Alpha virt. eigenvalues --    0.05286   0.05809   0.05921   0.06375   0.06424
 Alpha virt. eigenvalues --    0.06739   0.06747   0.06904   0.06952   0.07596
 Alpha virt. eigenvalues --    0.07664   0.07718   0.08054   0.08211   0.08564
 Alpha virt. eigenvalues --    0.08691   0.08962   0.09094   0.09444   0.09534
 Alpha virt. eigenvalues --    0.09664   0.09739   0.10118   0.10131   0.10671
 Alpha virt. eigenvalues --    0.10778   0.10981   0.11341   0.11789   0.12450
 Alpha virt. eigenvalues --    0.12747   0.12918   0.13073   0.13498   0.13873
 Alpha virt. eigenvalues --    0.14346   0.14665   0.15312   0.15984   0.16318
 Alpha virt. eigenvalues --    0.16339   0.16944   0.17200   0.17207   0.17430
 Alpha virt. eigenvalues --    0.17592   0.17696   0.18319   0.18436   0.18531
 Alpha virt. eigenvalues --    0.18554   0.18732   0.18942   0.19066   0.19124
 Alpha virt. eigenvalues --    0.19293   0.19735   0.19999   0.20239   0.20474
 Alpha virt. eigenvalues --    0.20536   0.20610   0.20750   0.20830   0.21078
 Alpha virt. eigenvalues --    0.21233   0.21332   0.21656   0.21690   0.21737
 Alpha virt. eigenvalues --    0.21898   0.22181   0.22415   0.22886   0.23115
 Alpha virt. eigenvalues --    0.23273   0.23366   0.23440   0.23452   0.24063
 Alpha virt. eigenvalues --    0.24396   0.24460   0.24962   0.25195   0.25249
 Alpha virt. eigenvalues --    0.25399   0.25451   0.25918   0.25988   0.26021
 Alpha virt. eigenvalues --    0.26445   0.26816   0.27000   0.27253   0.27551
 Alpha virt. eigenvalues --    0.27728   0.28278   0.28380   0.28497   0.28941
 Alpha virt. eigenvalues --    0.29386   0.29525   0.29567   0.29848   0.30195
 Alpha virt. eigenvalues --    0.30612   0.30809   0.30976   0.31070   0.31176
 Alpha virt. eigenvalues --    0.31414   0.31780   0.32018   0.32528   0.32594
 Alpha virt. eigenvalues --    0.32987   0.33102   0.33401   0.33583   0.33887
 Alpha virt. eigenvalues --    0.33914   0.34187   0.34245   0.34404   0.34732
 Alpha virt. eigenvalues --    0.34810   0.34878   0.35330   0.35496   0.35789
 Alpha virt. eigenvalues --    0.36276   0.36484   0.36509   0.36971   0.36977
 Alpha virt. eigenvalues --    0.37136   0.37146   0.37552   0.37580   0.37971
 Alpha virt. eigenvalues --    0.38240   0.38412   0.38481   0.38670   0.38807
 Alpha virt. eigenvalues --    0.38946   0.39045   0.39353   0.39644   0.39743
 Alpha virt. eigenvalues --    0.39886   0.39914   0.40194   0.40427   0.40652
 Alpha virt. eigenvalues --    0.40833   0.41049   0.41264   0.41558   0.41620
 Alpha virt. eigenvalues --    0.41643   0.41861   0.42079   0.42106   0.42175
 Alpha virt. eigenvalues --    0.42927   0.43126   0.43174   0.43201   0.43613
 Alpha virt. eigenvalues --    0.43676   0.43882   0.44164   0.44393   0.44640
 Alpha virt. eigenvalues --    0.44696   0.44903   0.45219   0.45253   0.45455
 Alpha virt. eigenvalues --    0.45735   0.45881   0.46100   0.46448   0.46588
 Alpha virt. eigenvalues --    0.46718   0.46933   0.47126   0.47383   0.47811
 Alpha virt. eigenvalues --    0.47847   0.48142   0.48165   0.48725   0.49169
 Alpha virt. eigenvalues --    0.49558   0.49760   0.50354   0.50389   0.50670
 Alpha virt. eigenvalues --    0.50892   0.50944   0.51326   0.51355   0.51713
 Alpha virt. eigenvalues --    0.51870   0.52498   0.52597   0.52877   0.53442
 Alpha virt. eigenvalues --    0.53852   0.54251   0.54619   0.54625   0.54995
 Alpha virt. eigenvalues --    0.55115   0.55286   0.56298   0.56531   0.57383
 Alpha virt. eigenvalues --    0.57564   0.57853   0.57953   0.58321   0.58621
 Alpha virt. eigenvalues --    0.59091   0.59145   0.59553   0.59899   0.60026
 Alpha virt. eigenvalues --    0.60629   0.60872   0.61040   0.61179   0.61824
 Alpha virt. eigenvalues --    0.61826   0.62302   0.62338   0.62567   0.62832
 Alpha virt. eigenvalues --    0.63027   0.63366   0.63373   0.63680   0.63713
 Alpha virt. eigenvalues --    0.63754   0.64160   0.64520   0.64693   0.64994
 Alpha virt. eigenvalues --    0.65208   0.65360   0.65977   0.66010   0.66397
 Alpha virt. eigenvalues --    0.66719   0.66953   0.67176   0.67893   0.67910
 Alpha virt. eigenvalues --    0.67958   0.68339   0.68751   0.68831   0.68900
 Alpha virt. eigenvalues --    0.69455   0.69573   0.69663   0.70067   0.70224
 Alpha virt. eigenvalues --    0.70262   0.70435   0.71228   0.71411   0.71731
 Alpha virt. eigenvalues --    0.72040   0.72150   0.72454   0.72553   0.72819
 Alpha virt. eigenvalues --    0.73288   0.73425   0.73605   0.73667   0.73964
 Alpha virt. eigenvalues --    0.74297   0.74510   0.74534   0.75269   0.75868
 Alpha virt. eigenvalues --    0.76053   0.76110   0.76444   0.76795   0.77004
 Alpha virt. eigenvalues --    0.77526   0.77859   0.77991   0.78384   0.78496
 Alpha virt. eigenvalues --    0.78714   0.79077   0.79331   0.79625   0.80075
 Alpha virt. eigenvalues --    0.80677   0.80816   0.80901   0.81667   0.82431
 Alpha virt. eigenvalues --    0.82540   0.83002   0.83216   0.83635   0.83889
 Alpha virt. eigenvalues --    0.84251   0.84317   0.84473   0.85318   0.85558
 Alpha virt. eigenvalues --    0.86147   0.86239   0.86639   0.87045   0.87051
 Alpha virt. eigenvalues --    0.87395   0.87717   0.88239   0.88578   0.88958
 Alpha virt. eigenvalues --    0.89033   0.89500   0.90072   0.90405   0.91050
 Alpha virt. eigenvalues --    0.91629   0.91657   0.91939   0.92140   0.92568
 Alpha virt. eigenvalues --    0.92934   0.93475   0.93895   0.94167   0.94417
 Alpha virt. eigenvalues --    0.94717   0.95451   0.95652   0.95743   0.96517
 Alpha virt. eigenvalues --    0.96870   0.97372   0.97467   0.97892   0.98369
 Alpha virt. eigenvalues --    0.98935   0.99027   0.99899   0.99953   1.00314
 Alpha virt. eigenvalues --    1.00516   1.00732   1.01261   1.01537   1.01651
 Alpha virt. eigenvalues --    1.02605   1.02812   1.03626   1.03646   1.03966
 Alpha virt. eigenvalues --    1.04206   1.04808   1.04915   1.05205   1.06090
 Alpha virt. eigenvalues --    1.06426   1.06552   1.07020   1.07022   1.07538
 Alpha virt. eigenvalues --    1.08136   1.08397   1.08832   1.09287   1.10123
 Alpha virt. eigenvalues --    1.10490   1.10673   1.10891   1.10954   1.11469
 Alpha virt. eigenvalues --    1.11788   1.11973   1.12568   1.12684   1.12960
 Alpha virt. eigenvalues --    1.13305   1.13828   1.14109   1.14342   1.14544
 Alpha virt. eigenvalues --    1.15077   1.15591   1.16081   1.16184   1.16619
 Alpha virt. eigenvalues --    1.16639   1.17173   1.17731   1.17923   1.18170
 Alpha virt. eigenvalues --    1.18500   1.18971   1.19189   1.19372   1.19504
 Alpha virt. eigenvalues --    1.19974   1.20096   1.20622   1.20740   1.20902
 Alpha virt. eigenvalues --    1.21125   1.21536   1.21958   1.22226   1.22371
 Alpha virt. eigenvalues --    1.22489   1.22832   1.23235   1.23837   1.23972
 Alpha virt. eigenvalues --    1.24164   1.24448   1.24721   1.24847   1.25339
 Alpha virt. eigenvalues --    1.25359   1.25796   1.26087   1.26953   1.27132
 Alpha virt. eigenvalues --    1.27318   1.27524   1.27901   1.28381   1.28998
 Alpha virt. eigenvalues --    1.29510   1.29905   1.30411   1.30792   1.31149
 Alpha virt. eigenvalues --    1.31695   1.32192   1.32352   1.32746   1.33211
 Alpha virt. eigenvalues --    1.34055   1.34737   1.35283   1.35511   1.35530
 Alpha virt. eigenvalues --    1.36088   1.36589   1.36878   1.37013   1.37660
 Alpha virt. eigenvalues --    1.37930   1.38590   1.38866   1.39088   1.39185
 Alpha virt. eigenvalues --    1.39871   1.40084   1.40352   1.40537   1.40840
 Alpha virt. eigenvalues --    1.41201   1.41438   1.41889   1.42162   1.42374
 Alpha virt. eigenvalues --    1.42743   1.43393   1.43671   1.43768   1.44309
 Alpha virt. eigenvalues --    1.44397   1.44991   1.45580   1.45883   1.45943
 Alpha virt. eigenvalues --    1.46265   1.46319   1.46854   1.47224   1.47654
 Alpha virt. eigenvalues --    1.47947   1.48102   1.48296   1.48477   1.48815
 Alpha virt. eigenvalues --    1.49885   1.50120   1.50600   1.50848   1.50922
 Alpha virt. eigenvalues --    1.51304   1.51465   1.51992   1.52353   1.52756
 Alpha virt. eigenvalues --    1.53315   1.53335   1.53890   1.54140   1.54786
 Alpha virt. eigenvalues --    1.54918   1.55161   1.55499   1.55699   1.56137
 Alpha virt. eigenvalues --    1.56400   1.56563   1.57138   1.57539   1.57797
 Alpha virt. eigenvalues --    1.58492   1.58575   1.58984   1.59204   1.59222
 Alpha virt. eigenvalues --    1.59545   1.59806   1.60027   1.60209   1.60576
 Alpha virt. eigenvalues --    1.60638   1.60901   1.60960   1.61132   1.61439
 Alpha virt. eigenvalues --    1.61528   1.61564   1.62229   1.62429   1.62601
 Alpha virt. eigenvalues --    1.62659   1.63566   1.63709   1.64254   1.64456
 Alpha virt. eigenvalues --    1.64650   1.65311   1.65448   1.66026   1.66067
 Alpha virt. eigenvalues --    1.66176   1.66680   1.66691   1.66803   1.67043
 Alpha virt. eigenvalues --    1.67409   1.67801   1.68629   1.68681   1.69051
 Alpha virt. eigenvalues --    1.69422   1.69823   1.70083   1.70192   1.71260
 Alpha virt. eigenvalues --    1.71735   1.72114   1.72352   1.72914   1.73048
 Alpha virt. eigenvalues --    1.73121   1.73595   1.74000   1.74229   1.74889
 Alpha virt. eigenvalues --    1.75546   1.75606   1.76331   1.77030   1.77361
 Alpha virt. eigenvalues --    1.77812   1.77880   1.78230   1.78605   1.78976
 Alpha virt. eigenvalues --    1.79323   1.79692   1.80484   1.80544   1.81144
 Alpha virt. eigenvalues --    1.81592   1.81820   1.82530   1.83218   1.83794
 Alpha virt. eigenvalues --    1.84334   1.85188   1.85332   1.85608   1.86261
 Alpha virt. eigenvalues --    1.86612   1.86932   1.87114   1.87705   1.87787
 Alpha virt. eigenvalues --    1.88886   1.89235   1.89290   1.90552   1.90610
 Alpha virt. eigenvalues --    1.91606   1.93178   1.93290   1.93344   1.93435
 Alpha virt. eigenvalues --    1.94237   1.94628   1.94735   1.95047   1.95555
 Alpha virt. eigenvalues --    1.95691   1.96347   1.96889   1.97669   1.98047
 Alpha virt. eigenvalues --    1.98420   1.98602   1.98757   1.99768   2.00023
 Alpha virt. eigenvalues --    2.00222   2.01054   2.01702   2.01788   2.02135
 Alpha virt. eigenvalues --    2.02453   2.02824   2.02835   2.02864   2.03746
 Alpha virt. eigenvalues --    2.04089   2.04463   2.04486   2.04971   2.05200
 Alpha virt. eigenvalues --    2.06070   2.06275   2.06540   2.06735   2.07379
 Alpha virt. eigenvalues --    2.07680   2.08251   2.08545   2.08608   2.08959
 Alpha virt. eigenvalues --    2.09242   2.10108   2.10239   2.10538   2.10682
 Alpha virt. eigenvalues --    2.12234   2.12769   2.13041   2.13154   2.13529
 Alpha virt. eigenvalues --    2.14135   2.14395   2.14518   2.14847   2.15690
 Alpha virt. eigenvalues --    2.15917   2.17036   2.17596   2.17827   2.17921
 Alpha virt. eigenvalues --    2.18787   2.19023   2.19502   2.19950   2.20847
 Alpha virt. eigenvalues --    2.21153   2.21208   2.22290   2.22467   2.23599
 Alpha virt. eigenvalues --    2.24603   2.24690   2.25417   2.25693   2.26420
 Alpha virt. eigenvalues --    2.27667   2.29015   2.29279   2.30499   2.30518
 Alpha virt. eigenvalues --    2.31174   2.32065   2.32202   2.32418   2.32857
 Alpha virt. eigenvalues --    2.33233   2.34081   2.34094   2.34748   2.34773
 Alpha virt. eigenvalues --    2.35052   2.35797   2.36589   2.37821   2.38650
 Alpha virt. eigenvalues --    2.38786   2.39334   2.40216   2.40401   2.41328
 Alpha virt. eigenvalues --    2.41912   2.42430   2.42616   2.43448   2.43470
 Alpha virt. eigenvalues --    2.44053   2.44427   2.45563   2.45869   2.46563
 Alpha virt. eigenvalues --    2.46945   2.47243   2.47299   2.48739   2.49218
 Alpha virt. eigenvalues --    2.50022   2.50174   2.50293   2.51077   2.51455
 Alpha virt. eigenvalues --    2.51509   2.51843   2.51845   2.52459   2.52509
 Alpha virt. eigenvalues --    2.52646   2.53015   2.53392   2.53929   2.54105
 Alpha virt. eigenvalues --    2.54577   2.54662   2.55006   2.55260   2.55341
 Alpha virt. eigenvalues --    2.55678   2.55891   2.56135   2.56418   2.56710
 Alpha virt. eigenvalues --    2.57065   2.57410   2.57431   2.57986   2.58056
 Alpha virt. eigenvalues --    2.58181   2.58417   2.58619   2.58875   2.59026
 Alpha virt. eigenvalues --    2.59400   2.59570   2.60143   2.60287   2.60417
 Alpha virt. eigenvalues --    2.60593   2.60644   2.61207   2.61544   2.62028
 Alpha virt. eigenvalues --    2.62063   2.62276   2.62596   2.62866   2.62964
 Alpha virt. eigenvalues --    2.63131   2.63459   2.64121   2.64440   2.64909
 Alpha virt. eigenvalues --    2.64919   2.65223   2.65558   2.65700   2.65830
 Alpha virt. eigenvalues --    2.66426   2.67122   2.67387   2.67621   2.67824
 Alpha virt. eigenvalues --    2.67928   2.68189   2.68245   2.68589   2.68904
 Alpha virt. eigenvalues --    2.69045   2.69675   2.69767   2.70152   2.70257
 Alpha virt. eigenvalues --    2.70568   2.70594   2.70915   2.70940   2.71596
 Alpha virt. eigenvalues --    2.71703   2.71818   2.72336   2.72541   2.72630
 Alpha virt. eigenvalues --    2.73306   2.73350   2.73581   2.73605   2.75016
 Alpha virt. eigenvalues --    2.75159   2.75286   2.75946   2.76331   2.76350
 Alpha virt. eigenvalues --    2.76852   2.76886   2.77070   2.77299   2.77323
 Alpha virt. eigenvalues --    2.77436   2.77849   2.78270   2.78452   2.78601
 Alpha virt. eigenvalues --    2.79034   2.79321   2.79590   2.79797   2.80150
 Alpha virt. eigenvalues --    2.80373   2.80624   2.80734   2.81291   2.81364
 Alpha virt. eigenvalues --    2.81791   2.82018   2.82602   2.82602   2.82989
 Alpha virt. eigenvalues --    2.83354   2.83438   2.84019   2.84721   2.85084
 Alpha virt. eigenvalues --    2.85140   2.85298   2.86167   2.86182   2.86557
 Alpha virt. eigenvalues --    2.87179   2.87549   2.88328   2.88748   2.88833
 Alpha virt. eigenvalues --    2.89751   2.90775   2.91505   2.91828   2.92660
 Alpha virt. eigenvalues --    2.92953   2.93359   2.94214   2.94636   2.95169
 Alpha virt. eigenvalues --    2.95243   2.96650   2.96799   2.97271   2.97291
 Alpha virt. eigenvalues --    2.98162   2.98364   2.98950   2.99551   3.00198
 Alpha virt. eigenvalues --    3.00505   3.01609   3.02098   3.02190   3.02452
 Alpha virt. eigenvalues --    3.02671   3.03129   3.03225   3.03243   3.03609
 Alpha virt. eigenvalues --    3.03671   3.03857   3.04100   3.04196   3.04571
 Alpha virt. eigenvalues --    3.04786   3.04885   3.05148   3.05605   3.05788
 Alpha virt. eigenvalues --    3.05945   3.05963   3.06179   3.06946   3.07258
 Alpha virt. eigenvalues --    3.07433   3.07498   3.07744   3.08002   3.08304
 Alpha virt. eigenvalues --    3.08321   3.08619   3.08999   3.09472   3.09898
 Alpha virt. eigenvalues --    3.09972   3.10143   3.10151   3.10395   3.10982
 Alpha virt. eigenvalues --    3.11099   3.11418   3.11657   3.12100   3.12126
 Alpha virt. eigenvalues --    3.12292   3.12973   3.13224   3.13319   3.14137
 Alpha virt. eigenvalues --    3.14822   3.14989   3.15614   3.15760   3.16078
 Alpha virt. eigenvalues --    3.16553   3.16879   3.17281   3.17288   3.17556
 Alpha virt. eigenvalues --    3.17674   3.17978   3.18653   3.19592   3.19651
 Alpha virt. eigenvalues --    3.20395   3.20445   3.21101   3.21455   3.21482
 Alpha virt. eigenvalues --    3.21798   3.21851   3.22292   3.22807   3.23122
 Alpha virt. eigenvalues --    3.23710   3.23772   3.24242   3.24267   3.24549
 Alpha virt. eigenvalues --    3.25060   3.25099   3.25633   3.25666   3.26126
 Alpha virt. eigenvalues --    3.26203   3.26438   3.27012   3.27207   3.27226
 Alpha virt. eigenvalues --    3.27678   3.27863   3.28123   3.28319   3.28600
 Alpha virt. eigenvalues --    3.28774   3.29008   3.29103   3.29756   3.29844
 Alpha virt. eigenvalues --    3.30015   3.30064   3.30633   3.30721   3.31195
 Alpha virt. eigenvalues --    3.31202   3.31775   3.31966   3.32245   3.32261
 Alpha virt. eigenvalues --    3.32369   3.33083   3.33332   3.33430   3.33922
 Alpha virt. eigenvalues --    3.34409   3.34527   3.34970   3.35281   3.35463
 Alpha virt. eigenvalues --    3.36332   3.36500   3.36878   3.37150   3.37485
 Alpha virt. eigenvalues --    3.37894   3.38604   3.39070   3.39275   3.39337
 Alpha virt. eigenvalues --    3.39362   3.39640   3.40190   3.40733   3.41162
 Alpha virt. eigenvalues --    3.41171   3.41693   3.42069   3.42341   3.42473
 Alpha virt. eigenvalues --    3.42847   3.43311   3.43365   3.43940   3.44122
 Alpha virt. eigenvalues --    3.44360   3.44582   3.44706   3.44928   3.45285
 Alpha virt. eigenvalues --    3.46340   3.47370   3.47708   3.47807   3.47964
 Alpha virt. eigenvalues --    3.48079   3.48900   3.49075   3.49354   3.50010
 Alpha virt. eigenvalues --    3.50049   3.50738   3.50812   3.50845   3.51230
 Alpha virt. eigenvalues --    3.51874   3.52584   3.54538   3.55603   3.56014
 Alpha virt. eigenvalues --    3.56570   3.57091   3.57824   3.59041   3.59794
 Alpha virt. eigenvalues --    3.60337   3.60673   3.60804   3.61575   3.61923
 Alpha virt. eigenvalues --    3.62167   3.62424   3.62872   3.63140   3.63645
 Alpha virt. eigenvalues --    3.64317   3.64995   3.65290   3.65655   3.65822
 Alpha virt. eigenvalues --    3.66237   3.66586   3.66911   3.67510   3.67862
 Alpha virt. eigenvalues --    3.67864   3.68568   3.70056   3.70142   3.71272
 Alpha virt. eigenvalues --    3.72117   3.78257   3.78548   3.78726   3.79537
 Alpha virt. eigenvalues --    3.81556   3.81662   3.82102   3.82517   3.83306
 Alpha virt. eigenvalues --    3.83783   3.83924   3.84436   3.84442   3.84987
 Alpha virt. eigenvalues --    3.85406   3.86165   3.88060   3.90930   3.91263
 Alpha virt. eigenvalues --    3.91642   3.92176   3.92457   3.92635   3.93130
 Alpha virt. eigenvalues --    3.93137   3.93566   3.94151   3.94639   3.95613
 Alpha virt. eigenvalues --    3.95625   3.95996   3.96470   3.97246   3.98085
 Alpha virt. eigenvalues --    3.99058   4.00295   4.00395   4.00755   4.00954
 Alpha virt. eigenvalues --    4.01961   4.02084   4.02621   4.03785   4.05153
 Alpha virt. eigenvalues --    4.05169   4.05609   4.06157   4.07058   4.07875
 Alpha virt. eigenvalues --    4.07965   4.08040   4.08257   4.08369   4.08594
 Alpha virt. eigenvalues --    4.08599   4.08767   4.08773   4.09065   4.09082
 Alpha virt. eigenvalues --    4.09893   4.10010   4.10225   4.10462   4.10865
 Alpha virt. eigenvalues --    4.10941   4.11049   4.11419   4.11667   4.11958
 Alpha virt. eigenvalues --    4.12032   4.12378   4.12745   4.13088   4.13187
 Alpha virt. eigenvalues --    4.14065   4.14225   4.14798   4.14901   4.15049
 Alpha virt. eigenvalues --    4.15055   4.15801   4.15984   4.16361   4.16597
 Alpha virt. eigenvalues --    4.18378   4.18657   4.19489   4.19982   4.21470
 Alpha virt. eigenvalues --    4.21723   4.21882   4.22347   4.22486   4.23018
 Alpha virt. eigenvalues --    4.23928   4.24846   4.25840   4.25968   4.29691
 Alpha virt. eigenvalues --    4.29900   4.30801   4.30848   4.38025   4.45235
 Alpha virt. eigenvalues --    4.47370   4.48699   4.48802   4.49482   4.49639
 Alpha virt. eigenvalues --    4.49875   4.50239   4.51794   4.51834   4.51876
 Alpha virt. eigenvalues --    4.51952   4.52140   4.52193   4.52689   4.52724
 Alpha virt. eigenvalues --    4.52822   4.53284   4.54859   4.59878   4.60131
 Alpha virt. eigenvalues --    4.61277   4.61456   4.61575   4.62139   4.62738
 Alpha virt. eigenvalues --    4.62948   4.63762   4.64018   4.64745   4.65434
 Alpha virt. eigenvalues --    4.66021   4.66568   4.66752   4.72490   4.72770
 Alpha virt. eigenvalues --    4.73342   4.73571   4.80422   4.80675   4.81616
 Alpha virt. eigenvalues --    4.81646   4.82151   4.82272   4.83379   4.83745
 Alpha virt. eigenvalues --    4.84327   4.84452   4.87484   4.90391   4.90642
 Alpha virt. eigenvalues --    4.96951   4.96955   4.97425   4.98021   4.99885
 Alpha virt. eigenvalues --    4.99973   5.00024   5.00394   5.00450   5.00847
 Alpha virt. eigenvalues --    5.00863   5.01018   5.01021   5.01425   5.01688
 Alpha virt. eigenvalues --    5.02022   5.02053   5.06627   5.08326   5.08382
 Alpha virt. eigenvalues --    5.13154   5.13170   5.14248   5.14277   5.21821
 Alpha virt. eigenvalues --    5.21985   5.22115   5.22242   5.24995   5.25630
 Alpha virt. eigenvalues --    5.26656   5.28926   5.28970   5.30029   5.30733
 Alpha virt. eigenvalues --    5.30784   5.34316   5.35623   5.35853   5.35891
 Alpha virt. eigenvalues --    5.37360   5.40797   5.46099   5.46334   5.47415
 Alpha virt. eigenvalues --    5.47869   5.48218   5.71738   6.09735   6.09928
 Alpha virt. eigenvalues --    6.10358   6.12095   6.16843   6.17174   6.17891
 Alpha virt. eigenvalues --    6.18043   6.37756   6.39417   6.42337   6.42543
 Alpha virt. eigenvalues --    6.43532   6.44363   6.45848   6.57117   6.58645
 Alpha virt. eigenvalues --    6.66821   6.69291   6.69698   6.70600   6.93072
 Alpha virt. eigenvalues --    6.93316   7.74661   7.74748   7.82432   7.82921
 Alpha virt. eigenvalues --    7.85079   7.85829  15.83282  15.87062  21.79453
 Alpha virt. eigenvalues --   21.81237  21.85008  21.85495  21.89347  21.90998
 Alpha virt. eigenvalues --   22.24434  22.25099  22.25805  22.26024  22.26217
 Alpha virt. eigenvalues --   22.26229  22.27646  22.27786  22.29308  22.29379
 Alpha virt. eigenvalues --   22.29654  22.32890  22.37129  22.37425  22.38599
 Alpha virt. eigenvalues --   22.39972  22.43083  22.44003  22.45044  22.45476
 Alpha virt. eigenvalues --   22.46375  22.47807  22.49354  22.49374  22.71537
 Alpha virt. eigenvalues --   22.71841  22.74469  22.77099  22.77505  22.80256
 Alpha virt. eigenvalues --   22.80887  22.84133  29.02014  43.55251  43.55274
 Alpha virt. eigenvalues --   97.37490
          Condensed to atoms (all electrons):
 Mulliken charges:
               1
     1  Ru  -0.054315
     2  Zn  -0.241265
     3  P    0.510622
     4  P    0.510678
     5  O   -0.112749
     6  O   -0.112753
     7  C   -0.127519
     8  C   -0.127502
     9  C    0.002106
    10  C    0.009743
    11  C   -0.189955
    12  H    0.140884
    13  C   -0.099176
    14  H    0.106834
    15  C   -0.129692
    16  H    0.105162
    17  C   -0.062073
    18  H    0.123566
    19  C    0.002119
    20  C   -0.062078
    21  H    0.123565
    22  C   -0.129688
    23  H    0.105161
    24  C   -0.099161
    25  H    0.106835
    26  C   -0.189968
    27  H    0.140892
    28  C    0.009699
    29  C   -0.065725
    30  C   -0.117684
    31  H    0.165048
    32  C   -0.140027
    33  H    0.113068
    34  C   -0.089932
    35  H    0.113209
    36  C   -0.106811
    37  H    0.111694
    38  C   -0.161150
    39  H    0.127890
    40  C   -0.055931
    41  C   -0.191499
    42  H    0.166928
    43  C   -0.119452
    44  H    0.114218
    45  C   -0.098772
    46  H    0.114275
    47  C   -0.133790
    48  H    0.113639
    49  C   -0.146694
    50  H    0.157532
    51  C   -0.065752
    52  C   -0.117670
    53  H    0.165051
    54  C   -0.140039
    55  H    0.113069
    56  C   -0.089927
    57  H    0.113209
    58  C   -0.106805
    59  H    0.111694
    60  C   -0.161154
    61  H    0.127886
    62  C   -0.055955
    63  C   -0.191440
    64  H    0.166919
    65  C   -0.119465
    66  H    0.114217
    67  C   -0.098771
    68  H    0.114275
    69  C   -0.133790
    70  H    0.113640
    71  C   -0.146725
    72  H    0.157532
 Sum of Mulliken charges =   0.00000
 Mulliken charges with hydrogens summed into heavy atoms:
               1
     1  Ru  -0.054315
     2  Zn  -0.241265
     3  P    0.510622
     4  P    0.510678
     5  O   -0.112749
     6  O   -0.112753
     7  C   -0.127519
     8  C   -0.127502
     9  C    0.002106
    10  C    0.009743
    11  C   -0.049071
    13  C    0.007658
    15  C   -0.024530
    17  C    0.061493
    19  C    0.002119
    20  C    0.061487
    22  C   -0.024527
    24  C    0.007674
    26  C   -0.049077
    28  C    0.009699
    29  C   -0.065725
    30  C    0.047364
    32  C   -0.026959
    34  C    0.023276
    36  C    0.004883
    38  C   -0.033260
    40  C   -0.055931
    41  C   -0.024571
    43  C   -0.005234
    45  C    0.015502
    47  C   -0.020151
    49  C    0.010838
    51  C   -0.065752
    52  C    0.047381
    54  C   -0.026970
    56  C    0.023281
    58  C    0.004889
    60  C   -0.033268
    62  C   -0.055955
    63  C   -0.024522
    65  C   -0.005248
    67  C    0.015505
    69  C   -0.020150
    71  C    0.010807
 Electronic spatial extent (au):  <R**2>=          24880.0595
 Charge=              0.0000 electrons
 Dipole moment (field-independent basis, Debye):
    X=              0.0001    Y=             -2.8344    Z=              0.0008  Tot=              2.8344
 Quadrupole moment (field-independent basis, Debye-Ang):
   XX=           -256.7651   YY=           -274.3697   ZZ=           -285.0902
   XY=              0.0026   XZ=              4.9250   YZ=             -0.0034
 Traceless Quadrupole moment (field-independent basis, Debye-Ang):
   XX=             15.3099   YY=             -2.2947   ZZ=            -13.0152
   XY=              0.0026   XZ=              4.9250   YZ=             -0.0034
 Octapole moment (field-independent basis, Debye-Ang**2):
  XXX=              0.0145  YYY=             73.4540  ZZZ=              0.0774  XYY=              0.0107
  XXY=            -16.8589  XXZ=              0.0034  XZZ=             -0.0161  YZZ=            -61.3144
  YYZ=             -0.0780  XYZ=             19.1177
 Hexadecapole moment (field-independent basis, Debye-Ang**3):
 XXXX=         -18700.7939 YYYY=          -7321.0499 ZZZZ=          -7261.7906 XXXY=              0.0157
 XXXZ=            -51.2271 YYYX=             -0.2295 YYYZ=              0.1849 ZZZX=            382.3698
 ZZZY=             -0.2434 XXYY=          -4219.7557 XXZZ=          -4111.9411 YYZZ=          -2263.7052
 XXYZ=              0.0246 YYXZ=           -209.8949 ZZXY=              0.3044
 N-N= 6.714695199929D+03 E-N=-2.326696209037D+04  KE= 4.099132797872D+03
 1\1\GINC-COMP26\SP\RBP86\Gen\C38H28O2P2Ru1Zn1\STUART\11-Apr-2020\0\\# 
 gen bp86 int=ultrafine pseudo=read\\Ru (PPh3)3 H4 from high temp MD\\0
 ,1\Ru,0,0.,-0.55031,0.00025\Zn,0,0.00002,2.06958,-0.00069\P,0,2.36563,
 -0.30195,-0.05785\P,0,-2.36563,-0.30188,0.05811\O,0,0.06442,0.31185,2.
 958\O,0,-0.06438,0.30948,-2.95822\C,0,0.04001,-0.11285,1.86083\C,0,-0.
 03999,-0.11423,-1.86066\C,0,1.87202,2.4575,-0.54222\C,0,2.8359,1.41362
 ,-0.64627\C,0,4.13363,1.65024,-1.14923\H,0,4.852,0.82787,-1.23958\C,0,
 4.50711,2.9413,-1.55247\H,0,5.51202,3.11978,-1.9503\C,0,3.58495,3.9941
 3,-1.44729\H,0,3.8685,5.00502,-1.76266\C,0,2.29421,3.74704,-0.94925\H,
 0,1.58997,4.58624,-0.88989\C,0,-1.87201,2.45792,0.54045\C,0,-2.2942,3.
 74777,0.9465\H,0,-1.58994,4.58692,0.88659\C,0,-3.58498,3.99525,1.44425
 \H,0,-3.86854,5.00638,1.75885\C,0,-4.50718,2.94252,1.55012\H,0,-5.5121
 2,3.12132,1.94773\C,0,-4.13369,1.65116,1.14786\H,0,-4.85208,0.82888,1.
 23876\C,0,-2.83591,1.41414,0.6452\C,0,3.22307,-0.47741,1.59172\C,0,3.9
 984,0.55023,2.16185\H,0,4.13369,1.49343,1.62412\C,0,4.59516,0.36756,3.
 42208\H,0,5.19089,1.17577,3.85948\C,0,4.42823,-0.8396,4.1165\H,0,4.893
 67,-0.97836,5.09793\C,0,3.6556,-1.86943,3.55127\H,0,3.51735,-2.81302,4
 .08974\C,0,3.05129,-1.6875,2.29978\H,0,2.43778,-2.48734,1.86864\C,0,3.
 35815,-1.49177,-1.10974\C,0,4.69763,-1.81624,-0.80004\H,0,5.17279,-1.3
 8458,0.08666\C,0,5.42133,-2.70128,-1.61488\H,0,6.45935,-2.94317,-1.362
 68\C,0,4.81677,-3.2779,-2.7436\H,0,5.38157,-3.97115,-3.3757\C,0,3.4825
 4,-2.9691,-3.05264\H,0,3.0002,-3.42122,-3.92566\C,0,2.75593,-2.08551,-
 2.23909\H,0,1.71262,-1.86046,-2.47862\C,0,-3.22299,-0.4786,-1.59136\C,
 0,-3.99828,0.54862,-2.16232\H,0,-4.1336,1.49222,-1.62531\C,0,-4.59496,
 0.365,-3.42245\H,0,-5.19065,1.17288,-3.8605\C,0,-4.42798,-0.84269,-4.1
 1595\H,0,-4.89336,-0.98219,-5.0973\C,0,-3.6554,-1.8721,-3.54989\H,0,-3
 .51712,-2.81609,-4.08764\C,0,-3.05117,-1.68922,-2.2985\H,0,-2.43769,-2
 .48874,-1.86672\C,0,-3.35824,-1.49089,1.11085\C,0,-4.69761,-1.8158,0.8
 0115\H,0,-5.17262,-1.38499,-0.08605\C,0,-5.42138,-2.7002,1.61661\H,0,-
 6.45931,-2.94245,1.3644\C,0,-4.817,-3.27575,2.74598\H,0,-5.38185,-3.96
 851,3.37857\C,0,-3.48286,-2.96653,3.05502\H,0,-3.00067,-3.41782,3.9285
 5\C,0,-2.75618,-2.08358,2.24084\H,0,-1.71295,-1.85821,2.4804\\Version=
 EM64L-G09RevD.01\State=1-A\HF=-4173.5371513\RMSD=6.825e-09\Dipole=0.00
 00342,-1.1151407,0.0003304\Quadrupole=11.3825565,-1.7060642,-9.6764922
 ,0.0019095,3.6616238,-0.0025244\PG=C01 [X(C38H28O2P2Ru1Zn1)]\\@


 If fifty million people say a stupid thing,
 it is still a stupid thing.
                   -- Anatole France
 Job cpu time:       0 days  7 hours 38 minutes 42.3 seconds.
 File lengths (MBytes):  RWF=   1264 Int=      0 D2E=      0 Chk=     86 Scr=      1
 Normal termination of Gaussian 09 at Sat Apr 11 15:12:00 2020.
