 Entering Gaussian System, Link 0=g09
 Input=ru_znphos_co2_trans.com
 Output=ru_znphos_co2_trans.log
 Initial command:
 /home/programs/G09_D/g09/l1.exe "/state/partition1/stuart_2020-04-03-2310_20419/Gau-22831.inp" -scrdir="/state/partition1/stuart_2020-04-03-2310_20419/"
 Entering Link 1 = /home/programs/G09_D/g09/l1.exe PID=     22832.
  
 Copyright (c) 1988,1990,1992,1993,1995,1998,2003,2009,2013,
            Gaussian, Inc.  All Rights Reserved.
  
 This is part of the Gaussian(R) 09 program.  It is based on
 the Gaussian(R) 03 system (copyright 2003, Gaussian, Inc.),
 the Gaussian(R) 98 system (copyright 1998, Gaussian, Inc.),
 the Gaussian(R) 94 system (copyright 1995, Gaussian, Inc.),
 the Gaussian 92(TM) system (copyright 1992, Gaussian, Inc.),
 the Gaussian 90(TM) system (copyright 1990, Gaussian, Inc.),
 the Gaussian 88(TM) system (copyright 1988, Gaussian, Inc.),
 the Gaussian 86(TM) system (copyright 1986, Carnegie Mellon
 University), and the Gaussian 82(TM) system (copyright 1983,
 Carnegie Mellon University). Gaussian is a federally registered
 trademark of Gaussian, Inc.
  
 This software contains proprietary and confidential information,
 including trade secrets, belonging to Gaussian, Inc.
  
 This software is provided under written license and may be
 used, copied, transmitted, or stored only in accord with that
 written license.
  
 The following legend is applicable only to US Government
 contracts under FAR:
  
                    RESTRICTED RIGHTS LEGEND
  
 Use, reproduction and disclosure by the US Government is
 subject to restrictions as set forth in subparagraphs (a)
 and (c) of the Commercial Computer Software - Restricted
 Rights clause in FAR 52.227-19.
  
 Gaussian, Inc.
 340 Quinnipiac St., Bldg. 40, Wallingford CT 06492
  
  
 ---------------------------------------------------------------
 Warning -- This program may not be used in any manner that
 competes with the business of Gaussian, Inc. or will provide
 assistance to any competitor of Gaussian, Inc.  The licensee
 of this program is prohibited from giving any competitor of
 Gaussian, Inc. access to this program.  By using this program,
 the user acknowledges that Gaussian, Inc. is engaged in the
 business of creating and licensing software in the field of
 computational chemistry and represents and warrants to the
 licensee that it is not a competitor of Gaussian, Inc. and that
 it will not use this program in any manner prohibited above.
 ---------------------------------------------------------------
  

 Cite this work as:
 Gaussian 09, Revision D.01,
 M. J. Frisch, G. W. Trucks, H. B. Schlegel, G. E. Scuseria, 
 M. A. Robb, J. R. Cheeseman, G. Scalmani, V. Barone, B. Mennucci, 
 G. A. Petersson, H. Nakatsuji, M. Caricato, X. Li, H. P. Hratchian, 
 A. F. Izmaylov, J. Bloino, G. Zheng, J. L. Sonnenberg, M. Hada, 
 M. Ehara, K. Toyota, R. Fukuda, J. Hasegawa, M. Ishida, T. Nakajima, 
 Y. Honda, O. Kitao, H. Nakai, T. Vreven, J. A. Montgomery, Jr., 
 J. E. Peralta, F. Ogliaro, M. Bearpark, J. J. Heyd, E. Brothers, 
 K. N. Kudin, V. N. Staroverov, T. Keith, R. Kobayashi, J. Normand, 
 K. Raghavachari, A. Rendell, J. C. Burant, S. S. Iyengar, J. Tomasi, 
 M. Cossi, N. Rega, J. M. Millam, M. Klene, J. E. Knox, J. B. Cross, 
 V. Bakken, C. Adamo, J. Jaramillo, R. Gomperts, R. E. Stratmann, 
 O. Yazyev, A. J. Austin, R. Cammi, C. Pomelli, J. W. Ochterski, 
 R. L. Martin, K. Morokuma, V. G. Zakrzewski, G. A. Voth, 
 P. Salvador, J. J. Dannenberg, S. Dapprich, A. D. Daniels, 
 O. Farkas, J. B. Foresman, J. V. Ortiz, J. Cioslowski, 
 and D. J. Fox, Gaussian, Inc., Wallingford CT, 2013.
 
 ******************************************
 Gaussian 09:  EM64L-G09RevD.01 24-Apr-2013
                 3-Apr-2020 
 ******************************************
 %nproc=8
 Will use up to    8 processors via shared memory.
 %mem=14Gb
 %chk=ru_znphos_co2_trans.chk
 ----------------------------------------------------------------------
 #p bp86 opt IOp(1/19=11) gen pseudo=read int=(grid=ultrafine) freq=nor
 aman
 ----------------------------------------------------------------------
 1/14=-1,18=20,19=11,26=4,38=1/1,3;
 2/9=110,12=2,17=6,18=5,40=1/2;
 3/5=7,11=2,16=1,17=8,25=1,30=1,71=1,74=404,75=-5/1,2,3;
 4//1;
 5/5=2,38=5/2;
 6/7=2,8=2,9=2,10=2,28=1/1;
 7//1,2,3,16;
 1/14=-1,18=20,19=11,26=4/3(2);
 2/9=110/2;
 99//99;
 2/9=110/2;
 3/5=7,6=1,11=2,16=1,17=8,25=1,30=1,71=1,74=404,75=-5,82=7/1,2,3;
 4/5=5,16=3,69=1/1;
 5/5=2,38=5/2;
 7//1,2,3,16;
 1/14=-1,18=20,19=11,26=4/3(-5);
 2/9=110/2;
 6/7=2,8=2,9=2,10=2,19=2,28=1/1;
 99/9=1/99;
 Leave Link    1 at Fri Apr  3 23:10:40 2020, MaxMem=  1879048192 cpu:         0.6
 (Enter /home/programs/G09_D/g09/l101.exe)
 ---
 Rab
 ---
 Symbolic Z-matrix:
 Charge =  0 Multiplicity = 1
 Ru                    0.00004  -0.56342  -0.00041 
 Zn                   -0.00007   2.16189   0.00038 
 P                    -2.375    -0.18561   0.05226 
 P                     2.37508  -0.18554  -0.05229 
 O                    -0.05992   0.35507  -2.96062 
 O                     0.05983   0.352     2.96075 
 C                    -0.04393  -0.00555  -1.84122 
 C                     0.04391  -0.00763   1.84105 
 C                    -1.87039   2.58083   0.50736 
 C                    -2.83564   1.54236   0.61505 
 C                    -4.14266   1.78722   1.09101 
 H                    -4.86452   0.96887   1.18335 
 C                    -4.51955   3.08563   1.46528 
 H                    -5.53008   3.27178   1.84436 
 C                    -3.59476   4.13599   1.35568 
 H                    -3.88239   5.15224   1.64864 
 C                    -2.2972    3.87908   0.88211 
 H                    -1.59149   4.7162    0.81679 
 C                     1.87049   2.58131  -0.50534 
 C                     2.29743   3.87986  -0.87891 
 H                     1.59158   4.71686  -0.81353 
 C                     3.5953    4.13725  -1.35133 
 H                     3.88304   5.15373  -1.64339 
 C                     4.52033   3.08709  -1.46091 
 H                     5.53113   3.27364  -1.83905 
 C                     4.14329   1.78837  -1.08787 
 H                     4.86531   0.97015  -1.18022 
 C                     2.83591   1.54302  -0.61312 
 C                    -3.19119  -0.36494  -1.61472 
 C                    -3.87688   0.69882  -2.2322 
 H                    -3.96178   1.66289  -1.72252 
 C                    -4.44974   0.52349  -3.50412 
 H                    -4.976     1.35837  -3.97841 
 C                    -4.34734  -0.71071  -4.16258 
 H                    -4.794    -0.84377  -5.15331 
 C                    -3.66518  -1.77584  -3.54868 
 H                    -3.57871  -2.74119  -4.05809 
 C                    -3.08439  -1.60413  -2.28466 
 H                    -2.54292  -2.43262  -1.81594 
 C                    -3.39461  -1.34248   1.10728 
 C                    -4.73271  -1.64732   0.77373 
 H                    -5.17715  -1.2341   -0.13704 
 C                    -5.49396  -2.49267   1.59675 
 H                    -6.52923  -2.72348   1.32461 
 C                    -4.92904  -3.04435   2.75757 
 H                    -5.52243  -3.70713   3.3958 
 C                    -3.59678  -2.75199   3.09044 
 H                    -3.14467  -3.18701   3.98762 
 C                    -2.83143  -1.91012   2.26864 
 H                    -1.78853  -1.70544   2.52449 
 C                     3.19084  -0.36679   1.61468 
 C                     3.87589   0.69644   2.23377 
 H                     3.96072   1.66115   1.7253 
 C                     4.44827   0.51973   3.50572 
 H                     4.97406   1.35421   3.98126 
 C                     4.34599  -0.71532   4.16261 
 H                     4.79224  -0.84944   5.15339 
 C                     3.66448  -1.77991   3.54709 
 H                     3.57814  -2.74592   4.05527 
 C                     3.08417  -1.60686   2.28303 
 H                     2.54324  -2.43497   1.81302 
 C                     3.39486  -1.34119  -1.10848 
 C                     4.73265  -1.64714  -0.77469 
 H                     5.17675  -1.23559   0.13698 
 C                     5.49399  -2.49143  -1.59871 
 H                     6.52899  -2.72315  -1.32638 
 C                     4.92952  -3.0409   -2.76077 
 H                     5.52301  -3.70284  -3.3998 
 C                     3.59755  -2.74742  -3.09393 
 H                     3.14579  -3.18071  -3.99211 
 C                     2.8321   -1.90665  -2.27112 
 H                     1.78942  -1.70111  -2.52721 
 
 NAtoms=     72 NQM=       72 NQMF=       0 NMMI=      0 NMMIF=      0
                NMic=       0 NMicF=      0.
                    Isotopes and Nuclear Properties:
 (Nuclear quadrupole moments (NQMom) in fm**2, nuclear magnetic moments (NMagM)
  in nuclear magnetons)

  Atom         1           2           3           4           5           6           7           8           9          10
 IAtWgt=         102          64          31          31          16          16          12          12          12          12
 AtmWgt= 101.9037000  63.9291454  30.9737634  30.9737634  15.9949146  15.9949146  12.0000000  12.0000000  12.0000000  12.0000000
 NucSpn=           0           0           1           1           0           0           0           0           0           0
 AtZEff=   0.0000000   0.0000000   0.0000000   0.0000000   0.0000000   0.0000000   0.0000000   0.0000000   0.0000000   0.0000000
 NQMom=    0.0000000   0.0000000   0.0000000   0.0000000   0.0000000   0.0000000   0.0000000   0.0000000   0.0000000   0.0000000
 NMagM=    0.0000000   0.0000000   1.1316000   1.1316000   0.0000000   0.0000000   0.0000000   0.0000000   0.0000000   0.0000000
 AtZNuc=  44.0000000  30.0000000  15.0000000  15.0000000   8.0000000   8.0000000   6.0000000   6.0000000   6.0000000   6.0000000

  Atom        11          12          13          14          15          16          17          18          19          20
 IAtWgt=          12           1          12           1          12           1          12           1          12          12
 AtmWgt=  12.0000000   1.0078250  12.0000000   1.0078250  12.0000000   1.0078250  12.0000000   1.0078250  12.0000000  12.0000000
 NucSpn=           0           1           0           1           0           1           0           1           0           0
 AtZEff=   0.0000000   0.0000000   0.0000000   0.0000000   0.0000000   0.0000000   0.0000000   0.0000000   0.0000000   0.0000000
 NQMom=    0.0000000   0.0000000   0.0000000   0.0000000   0.0000000   0.0000000   0.0000000   0.0000000   0.0000000   0.0000000
 NMagM=    0.0000000   2.7928460   0.0000000   2.7928460   0.0000000   2.7928460   0.0000000   2.7928460   0.0000000   0.0000000
 AtZNuc=   6.0000000   1.0000000   6.0000000   1.0000000   6.0000000   1.0000000   6.0000000   1.0000000   6.0000000   6.0000000

  Atom        21          22          23          24          25          26          27          28          29          30
 IAtWgt=           1          12           1          12           1          12           1          12          12          12
 AtmWgt=   1.0078250  12.0000000   1.0078250  12.0000000   1.0078250  12.0000000   1.0078250  12.0000000  12.0000000  12.0000000
 NucSpn=           1           0           1           0           1           0           1           0           0           0
 AtZEff=   0.0000000   0.0000000   0.0000000   0.0000000   0.0000000   0.0000000   0.0000000   0.0000000   0.0000000   0.0000000
 NQMom=    0.0000000   0.0000000   0.0000000   0.0000000   0.0000000   0.0000000   0.0000000   0.0000000   0.0000000   0.0000000
 NMagM=    2.7928460   0.0000000   2.7928460   0.0000000   2.7928460   0.0000000   2.7928460   0.0000000   0.0000000   0.0000000
 AtZNuc=   1.0000000   6.0000000   1.0000000   6.0000000   1.0000000   6.0000000   1.0000000   6.0000000   6.0000000   6.0000000

  Atom        31          32          33          34          35          36          37          38          39          40
 IAtWgt=           1          12           1          12           1          12           1          12           1          12
 AtmWgt=   1.0078250  12.0000000   1.0078250  12.0000000   1.0078250  12.0000000   1.0078250  12.0000000   1.0078250  12.0000000
 NucSpn=           1           0           1           0           1           0           1           0           1           0
 AtZEff=   0.0000000   0.0000000   0.0000000   0.0000000   0.0000000   0.0000000   0.0000000   0.0000000   0.0000000   0.0000000
 NQMom=    0.0000000   0.0000000   0.0000000   0.0000000   0.0000000   0.0000000   0.0000000   0.0000000   0.0000000   0.0000000
 NMagM=    2.7928460   0.0000000   2.7928460   0.0000000   2.7928460   0.0000000   2.7928460   0.0000000   2.7928460   0.0000000
 AtZNuc=   1.0000000   6.0000000   1.0000000   6.0000000   1.0000000   6.0000000   1.0000000   6.0000000   1.0000000   6.0000000

  Atom        41          42          43          44          45          46          47          48          49          50
 IAtWgt=          12           1          12           1          12           1          12           1          12           1
 AtmWgt=  12.0000000   1.0078250  12.0000000   1.0078250  12.0000000   1.0078250  12.0000000   1.0078250  12.0000000   1.0078250
 NucSpn=           0           1           0           1           0           1           0           1           0           1
 AtZEff=   0.0000000   0.0000000   0.0000000   0.0000000   0.0000000   0.0000000   0.0000000   0.0000000   0.0000000   0.0000000
 NQMom=    0.0000000   0.0000000   0.0000000   0.0000000   0.0000000   0.0000000   0.0000000   0.0000000   0.0000000   0.0000000
 NMagM=    0.0000000   2.7928460   0.0000000   2.7928460   0.0000000   2.7928460   0.0000000   2.7928460   0.0000000   2.7928460
 AtZNuc=   6.0000000   1.0000000   6.0000000   1.0000000   6.0000000   1.0000000   6.0000000   1.0000000   6.0000000   1.0000000

  Atom        51          52          53          54          55          56          57          58          59          60
 IAtWgt=          12          12           1          12           1          12           1          12           1          12
 AtmWgt=  12.0000000  12.0000000   1.0078250  12.0000000   1.0078250  12.0000000   1.0078250  12.0000000   1.0078250  12.0000000
 NucSpn=           0           0           1           0           1           0           1           0           1           0
 AtZEff=   0.0000000   0.0000000   0.0000000   0.0000000   0.0000000   0.0000000   0.0000000   0.0000000   0.0000000   0.0000000
 NQMom=    0.0000000   0.0000000   0.0000000   0.0000000   0.0000000   0.0000000   0.0000000   0.0000000   0.0000000   0.0000000
 NMagM=    0.0000000   0.0000000   2.7928460   0.0000000   2.7928460   0.0000000   2.7928460   0.0000000   2.7928460   0.0000000
 AtZNuc=   6.0000000   6.0000000   1.0000000   6.0000000   1.0000000   6.0000000   1.0000000   6.0000000   1.0000000   6.0000000

  Atom        61          62          63          64          65          66          67          68          69          70
 IAtWgt=           1          12          12           1          12           1          12           1          12           1
 AtmWgt=   1.0078250  12.0000000  12.0000000   1.0078250  12.0000000   1.0078250  12.0000000   1.0078250  12.0000000   1.0078250
 NucSpn=           1           0           0           1           0           1           0           1           0           1
 AtZEff=   0.0000000   0.0000000   0.0000000   0.0000000   0.0000000   0.0000000   0.0000000   0.0000000   0.0000000   0.0000000
 NQMom=    0.0000000   0.0000000   0.0000000   0.0000000   0.0000000   0.0000000   0.0000000   0.0000000   0.0000000   0.0000000
 NMagM=    2.7928460   0.0000000   0.0000000   2.7928460   0.0000000   2.7928460   0.0000000   2.7928460   0.0000000   2.7928460
 AtZNuc=   1.0000000   6.0000000   6.0000000   1.0000000   6.0000000   1.0000000   6.0000000   1.0000000   6.0000000   1.0000000

  Atom        71          72
 IAtWgt=          12           1
 AtmWgt=  12.0000000   1.0078250
 NucSpn=           0           1
 AtZEff=   0.0000000   0.0000000
 NQMom=    0.0000000   0.0000000
 NMagM=    0.0000000   2.7928460
 AtZNuc=   6.0000000   1.0000000
 Leave Link  101 at Fri Apr  3 23:10:40 2020, MaxMem=  1879048192 cpu:         2.7
 (Enter /home/programs/G09_D/g09/l103.exe)

 GradGradGradGradGradGradGradGradGradGradGradGradGradGradGradGradGradGrad
 Berny optimization.
 Initialization pass.
                           ----------------------------
                           !    Initial Parameters    !
                           ! (Angstroms and Degrees)  !
 --------------------------                            --------------------------
 ! Name  Definition              Value          Derivative Info.                !
 --------------------------------------------------------------------------------
 ! R1    R(1,2)                  2.7253         estimate D2E/DX2                !
 ! R2    R(1,3)                  2.4055         estimate D2E/DX2                !
 ! R3    R(1,4)                  2.4055         estimate D2E/DX2                !
 ! R4    R(1,7)                  1.924          estimate D2E/DX2                !
 ! R5    R(1,8)                  1.924          estimate D2E/DX2                !
 ! R6    R(2,9)                  1.9826         estimate D2E/DX2                !
 ! R7    R(2,19)                 1.9826         estimate D2E/DX2                !
 ! R8    R(3,10)                 1.8748         estimate D2E/DX2                !
 ! R9    R(3,29)                 1.8647         estimate D2E/DX2                !
 ! R10   R(3,40)                 1.8684         estimate D2E/DX2                !
 ! R11   R(4,28)                 1.8748         estimate D2E/DX2                !
 ! R12   R(4,51)                 1.8647         estimate D2E/DX2                !
 ! R13   R(4,62)                 1.8684         estimate D2E/DX2                !
 ! R14   R(5,7)                  1.1762         estimate D2E/DX2                !
 ! R15   R(6,8)                  1.1761         estimate D2E/DX2                !
 ! R16   R(9,10)                 1.4219         estimate D2E/DX2                !
 ! R17   R(9,17)                 1.4171         estimate D2E/DX2                !
 ! R18   R(10,11)                1.4124         estimate D2E/DX2                !
 ! R19   R(11,12)                1.0951         estimate D2E/DX2                !
 ! R20   R(11,13)                1.4029         estimate D2E/DX2                !
 ! R21   R(13,14)                1.0952         estimate D2E/DX2                !
 ! R22   R(13,15)                1.4037         estimate D2E/DX2                !
 ! R23   R(15,16)                1.096          estimate D2E/DX2                !
 ! R24   R(15,17)                1.405          estimate D2E/DX2                !
 ! R25   R(17,18)                1.0968         estimate D2E/DX2                !
 ! R26   R(19,20)                1.4171         estimate D2E/DX2                !
 ! R27   R(19,28)                1.4219         estimate D2E/DX2                !
 ! R28   R(20,21)                1.0968         estimate D2E/DX2                !
 ! R29   R(20,22)                1.405          estimate D2E/DX2                !
 ! R30   R(22,23)                1.096          estimate D2E/DX2                !
 ! R31   R(22,24)                1.4038         estimate D2E/DX2                !
 ! R32   R(24,25)                1.0952         estimate D2E/DX2                !
 ! R33   R(24,26)                1.4029         estimate D2E/DX2                !
 ! R34   R(26,27)                1.0951         estimate D2E/DX2                !
 ! R35   R(26,28)                1.4124         estimate D2E/DX2                !
 ! R36   R(29,30)                1.4082         estimate D2E/DX2                !
 ! R37   R(29,38)                1.4127         estimate D2E/DX2                !
 ! R38   R(30,31)                1.0938         estimate D2E/DX2                !
 ! R39   R(30,32)                1.4059         estimate D2E/DX2                !
 ! R40   R(32,33)                1.095          estimate D2E/DX2                !
 ! R41   R(32,34)                1.4026         estimate D2E/DX2                !
 ! R42   R(34,35)                1.0949         estimate D2E/DX2                !
 ! R43   R(34,36)                1.406          estimate D2E/DX2                !
 ! R44   R(36,37)                1.0949         estimate D2E/DX2                !
 ! R45   R(36,38)                1.4016         estimate D2E/DX2                !
 ! R46   R(38,39)                1.0951         estimate D2E/DX2                !
 ! R47   R(40,41)                1.4123         estimate D2E/DX2                !
 ! R48   R(40,49)                1.41           estimate D2E/DX2                !
 ! R49   R(41,42)                1.0944         estimate D2E/DX2                !
 ! R50   R(41,43)                1.4041         estimate D2E/DX2                !
 ! R51   R(43,44)                1.095          estimate D2E/DX2                !
 ! R52   R(43,45)                1.4039         estimate D2E/DX2                !
 ! R53   R(45,46)                1.0949         estimate D2E/DX2                !
 ! R54   R(45,47)                1.404          estimate D2E/DX2                !
 ! R55   R(47,48)                1.0948         estimate D2E/DX2                !
 ! R56   R(47,49)                1.4035         estimate D2E/DX2                !
 ! R57   R(49,50)                1.0932         estimate D2E/DX2                !
 ! R58   R(51,52)                1.4082         estimate D2E/DX2                !
 ! R59   R(51,60)                1.4127         estimate D2E/DX2                !
 ! R60   R(52,53)                1.0938         estimate D2E/DX2                !
 ! R61   R(52,54)                1.406          estimate D2E/DX2                !
 ! R62   R(54,55)                1.095          estimate D2E/DX2                !
 ! R63   R(54,56)                1.4026         estimate D2E/DX2                !
 ! R64   R(56,57)                1.0949         estimate D2E/DX2                !
 ! R65   R(56,58)                1.4059         estimate D2E/DX2                !
 ! R66   R(58,59)                1.0949         estimate D2E/DX2                !
 ! R67   R(58,60)                1.4016         estimate D2E/DX2                !
 ! R68   R(60,61)                1.0951         estimate D2E/DX2                !
 ! R69   R(62,63)                1.4123         estimate D2E/DX2                !
 ! R70   R(62,71)                1.41           estimate D2E/DX2                !
 ! R71   R(63,64)                1.0944         estimate D2E/DX2                !
 ! R72   R(63,65)                1.4041         estimate D2E/DX2                !
 ! R73   R(65,66)                1.095          estimate D2E/DX2                !
 ! R74   R(65,67)                1.4039         estimate D2E/DX2                !
 ! R75   R(67,68)                1.0949         estimate D2E/DX2                !
 ! R76   R(67,69)                1.404          estimate D2E/DX2                !
 ! R77   R(69,70)                1.0948         estimate D2E/DX2                !
 ! R78   R(69,71)                1.4035         estimate D2E/DX2                !
 ! R79   R(71,72)                1.0932         estimate D2E/DX2                !
 ! A1    A(2,1,3)               80.9609         estimate D2E/DX2                !
 ! A2    A(2,1,4)               80.9645         estimate D2E/DX2                !
 ! A3    A(2,1,7)               73.1613         estimate D2E/DX2                !
 ! A4    A(2,1,8)               73.1931         estimate D2E/DX2                !
 ! A5    A(3,1,4)              161.9254         estimate D2E/DX2                !
 ! A6    A(3,1,7)               87.2972         estimate D2E/DX2                !
 ! A7    A(3,1,8)               87.4888         estimate D2E/DX2                !
 ! A8    A(4,1,7)               87.5            estimate D2E/DX2                !
 ! A9    A(4,1,8)               87.2918         estimate D2E/DX2                !
 ! A10   A(7,1,8)              146.3544         estimate D2E/DX2                !
 ! A11   A(1,2,9)              102.2057         estimate D2E/DX2                !
 ! A12   A(1,2,19)             102.2067         estimate D2E/DX2                !
 ! A13   A(9,2,19)             155.5875         estimate D2E/DX2                !
 ! A14   A(1,3,10)             113.1993         estimate D2E/DX2                !
 ! A15   A(1,3,29)             113.4211         estimate D2E/DX2                !
 ! A16   A(1,3,40)             116.9952         estimate D2E/DX2                !
 ! A17   A(10,3,29)            104.4451         estimate D2E/DX2                !
 ! A18   A(10,3,40)            105.4915         estimate D2E/DX2                !
 ! A19   A(29,3,40)            101.9102         estimate D2E/DX2                !
 ! A20   A(1,4,28)             113.2027         estimate D2E/DX2                !
 ! A21   A(1,4,51)             113.4152         estimate D2E/DX2                !
 ! A22   A(1,4,62)             116.9954         estimate D2E/DX2                !
 ! A23   A(28,4,51)            104.4485         estimate D2E/DX2                !
 ! A24   A(28,4,62)            105.4867         estimate D2E/DX2                !
 ! A25   A(51,4,62)            101.9143         estimate D2E/DX2                !
 ! A26   A(2,9,10)             120.3615         estimate D2E/DX2                !
 ! A27   A(2,9,17)             123.0492         estimate D2E/DX2                !
 ! A28   A(10,9,17)            116.3991         estimate D2E/DX2                !
 ! A29   A(3,10,9)             118.9226         estimate D2E/DX2                !
 ! A30   A(3,10,11)            119.2308         estimate D2E/DX2                !
 ! A31   A(9,10,11)            121.8113         estimate D2E/DX2                !
 ! A32   A(10,11,12)           120.5873         estimate D2E/DX2                !
 ! A33   A(10,11,13)           119.9331         estimate D2E/DX2                !
 ! A34   A(12,11,13)           119.4752         estimate D2E/DX2                !
 ! A35   A(11,13,14)           119.8371         estimate D2E/DX2                !
 ! A36   A(11,13,15)           119.6515         estimate D2E/DX2                !
 ! A37   A(14,13,15)           120.5108         estimate D2E/DX2                !
 ! A38   A(13,15,16)           120.0015         estimate D2E/DX2                !
 ! A39   A(13,15,17)           119.8631         estimate D2E/DX2                !
 ! A40   A(16,15,17)           120.1326         estimate D2E/DX2                !
 ! A41   A(9,17,15)            122.3327         estimate D2E/DX2                !
 ! A42   A(9,17,18)            119.3197         estimate D2E/DX2                !
 ! A43   A(15,17,18)           118.3417         estimate D2E/DX2                !
 ! A44   A(2,19,20)            123.0496         estimate D2E/DX2                !
 ! A45   A(2,19,28)            120.3625         estimate D2E/DX2                !
 ! A46   A(20,19,28)           116.3984         estimate D2E/DX2                !
 ! A47   A(19,20,21)           119.3195         estimate D2E/DX2                !
 ! A48   A(19,20,22)           122.3335         estimate D2E/DX2                !
 ! A49   A(21,20,22)           118.3412         estimate D2E/DX2                !
 ! A50   A(20,22,23)           120.1335         estimate D2E/DX2                !
 ! A51   A(20,22,24)           119.8636         estimate D2E/DX2                !
 ! A52   A(23,22,24)           120.0001         estimate D2E/DX2                !
 ! A53   A(22,24,25)           120.5108         estimate D2E/DX2                !
 ! A54   A(22,24,26)           119.6507         estimate D2E/DX2                !
 ! A55   A(25,24,26)           119.838          estimate D2E/DX2                !
 ! A56   A(24,26,27)           119.476          estimate D2E/DX2                !
 ! A57   A(24,26,28)           119.9331         estimate D2E/DX2                !
 ! A58   A(27,26,28)           120.5865         estimate D2E/DX2                !
 ! A59   A(4,28,19)            118.9276         estimate D2E/DX2                !
 ! A60   A(4,28,26)            119.2254         estimate D2E/DX2                !
 ! A61   A(19,28,26)           121.8119         estimate D2E/DX2                !
 ! A62   A(3,29,30)            122.1727         estimate D2E/DX2                !
 ! A63   A(3,29,38)            118.3722         estimate D2E/DX2                !
 ! A64   A(30,29,38)           119.4379         estimate D2E/DX2                !
 ! A65   A(29,30,31)           119.9522         estimate D2E/DX2                !
 ! A66   A(29,30,32)           120.0585         estimate D2E/DX2                !
 ! A67   A(31,30,32)           119.9892         estimate D2E/DX2                !
 ! A68   A(30,32,33)           119.5125         estimate D2E/DX2                !
 ! A69   A(30,32,34)           120.3106         estimate D2E/DX2                !
 ! A70   A(33,32,34)           120.1769         estimate D2E/DX2                !
 ! A71   A(32,34,35)           120.1293         estimate D2E/DX2                !
 ! A72   A(32,34,36)           119.8058         estimate D2E/DX2                !
 ! A73   A(35,34,36)           120.0645         estimate D2E/DX2                !
 ! A74   A(34,36,37)           120.2052         estimate D2E/DX2                !
 ! A75   A(34,36,38)           120.1333         estimate D2E/DX2                !
 ! A76   A(37,36,38)           119.6601         estimate D2E/DX2                !
 ! A77   A(29,38,36)           120.2512         estimate D2E/DX2                !
 ! A78   A(29,38,39)           119.8682         estimate D2E/DX2                !
 ! A79   A(36,38,39)           119.8803         estimate D2E/DX2                !
 ! A80   A(3,40,41)            121.1519         estimate D2E/DX2                !
 ! A81   A(3,40,49)            119.7608         estimate D2E/DX2                !
 ! A82   A(41,40,49)           119.0811         estimate D2E/DX2                !
 ! A83   A(40,41,42)           119.986          estimate D2E/DX2                !
 ! A84   A(40,41,43)           120.3436         estimate D2E/DX2                !
 ! A85   A(42,41,43)           119.6658         estimate D2E/DX2                !
 ! A86   A(41,43,44)           119.5906         estimate D2E/DX2                !
 ! A87   A(41,43,45)           120.2042         estimate D2E/DX2                !
 ! A88   A(44,43,45)           120.2043         estimate D2E/DX2                !
 ! A89   A(43,45,46)           120.1182         estimate D2E/DX2                !
 ! A90   A(43,45,47)           119.7381         estimate D2E/DX2                !
 ! A91   A(46,45,47)           120.1414         estimate D2E/DX2                !
 ! A92   A(45,47,48)           120.2261         estimate D2E/DX2                !
 ! A93   A(45,47,49)           120.2339         estimate D2E/DX2                !
 ! A94   A(48,47,49)           119.5373         estimate D2E/DX2                !
 ! A95   A(40,49,47)           120.3941         estimate D2E/DX2                !
 ! A96   A(40,49,50)           119.8973         estimate D2E/DX2                !
 ! A97   A(47,49,50)           119.7032         estimate D2E/DX2                !
 ! A98   A(4,51,52)            122.1708         estimate D2E/DX2                !
 ! A99   A(4,51,60)            118.373          estimate D2E/DX2                !
 ! A100  A(52,51,60)           119.4387         estimate D2E/DX2                !
 ! A101  A(51,52,53)           119.9522         estimate D2E/DX2                !
 ! A102  A(51,52,54)           120.0584         estimate D2E/DX2                !
 ! A103  A(53,52,54)           119.9893         estimate D2E/DX2                !
 ! A104  A(52,54,55)           119.5121         estimate D2E/DX2                !
 ! A105  A(52,54,56)           120.3102         estimate D2E/DX2                !
 ! A106  A(55,54,56)           120.1776         estimate D2E/DX2                !
 ! A107  A(54,56,57)           120.1288         estimate D2E/DX2                !
 ! A108  A(54,56,58)           119.8057         estimate D2E/DX2                !
 ! A109  A(57,56,58)           120.0651         estimate D2E/DX2                !
 ! A110  A(56,58,59)           120.2042         estimate D2E/DX2                !
 ! A111  A(56,58,60)           120.1348         estimate D2E/DX2                !
 ! A112  A(59,58,60)           119.6597         estimate D2E/DX2                !
 ! A113  A(51,60,58)           120.2495         estimate D2E/DX2                !
 ! A114  A(51,60,61)           119.8686         estimate D2E/DX2                !
 ! A115  A(58,60,61)           119.8816         estimate D2E/DX2                !
 ! A116  A(4,62,63)            121.1564         estimate D2E/DX2                !
 ! A117  A(4,62,71)            119.7564         estimate D2E/DX2                !
 ! A118  A(63,62,71)           119.081          estimate D2E/DX2                !
 ! A119  A(62,63,64)           119.9856         estimate D2E/DX2                !
 ! A120  A(62,63,65)           120.3425         estimate D2E/DX2                !
 ! A121  A(64,63,65)           119.6674         estimate D2E/DX2                !
 ! A122  A(63,65,66)           119.5904         estimate D2E/DX2                !
 ! A123  A(63,65,67)           120.2056         estimate D2E/DX2                !
 ! A124  A(66,65,67)           120.2031         estimate D2E/DX2                !
 ! A125  A(65,67,68)           120.1186         estimate D2E/DX2                !
 ! A126  A(65,67,69)           119.7386         estimate D2E/DX2                !
 ! A127  A(68,67,69)           120.1406         estimate D2E/DX2                !
 ! A128  A(67,69,70)           120.2265         estimate D2E/DX2                !
 ! A129  A(67,69,71)           120.2321         estimate D2E/DX2                !
 ! A130  A(70,69,71)           119.5387         estimate D2E/DX2                !
 ! A131  A(62,71,69)           120.3953         estimate D2E/DX2                !
 ! A132  A(62,71,72)           119.897          estimate D2E/DX2                !
 ! A133  A(69,71,72)           119.7023         estimate D2E/DX2                !
 ! A134  L(1,7,5,9,-1)         179.4074         estimate D2E/DX2                !
 ! A135  L(1,8,6,9,-1)         178.8639         estimate D2E/DX2                !
 ! A136  L(1,7,5,9,-2)         178.968          estimate D2E/DX2                !
 ! A137  L(1,8,6,9,-2)         180.1185         estimate D2E/DX2                !
 ! D1    D(3,1,2,9)             13.8954         estimate D2E/DX2                !
 ! D2    D(3,1,2,19)          -166.1358         estimate D2E/DX2                !
 ! D3    D(4,1,2,9)           -166.0908         estimate D2E/DX2                !
 ! D4    D(4,1,2,19)            13.878          estimate D2E/DX2                !
 ! D5    D(7,1,2,9)            103.7956         estimate D2E/DX2                !
 ! D6    D(7,1,2,19)           -76.2355         estimate D2E/DX2                !
 ! D7    D(8,1,2,9)            -76.2024         estimate D2E/DX2                !
 ! D8    D(8,1,2,19)           103.7665         estimate D2E/DX2                !
 ! D9    D(2,1,3,10)           -18.6819         estimate D2E/DX2                !
 ! D10   D(2,1,3,29)           100.0962         estimate D2E/DX2                !
 ! D11   D(2,1,3,40)          -141.6695         estimate D2E/DX2                !
 ! D12   D(4,1,3,10)           -18.6381         estimate D2E/DX2                !
 ! D13   D(4,1,3,29)           100.1401         estimate D2E/DX2                !
 ! D14   D(4,1,3,40)          -141.6256         estimate D2E/DX2                !
 ! D15   D(7,1,3,10)           -92.0551         estimate D2E/DX2                !
 ! D16   D(7,1,3,29)            26.723          estimate D2E/DX2                !
 ! D17   D(7,1,3,40)           144.9574         estimate D2E/DX2                !
 ! D18   D(8,1,3,10)            54.6942         estimate D2E/DX2                !
 ! D19   D(8,1,3,29)           173.4723         estimate D2E/DX2                !
 ! D20   D(8,1,3,40)           -68.2934         estimate D2E/DX2                !
 ! D21   D(2,1,4,28)           -18.6525         estimate D2E/DX2                !
 ! D22   D(2,1,4,51)           100.1282         estimate D2E/DX2                !
 ! D23   D(2,1,4,62)          -141.6365         estimate D2E/DX2                !
 ! D24   D(3,1,4,28)           -18.6964         estimate D2E/DX2                !
 ! D25   D(3,1,4,51)           100.0843         estimate D2E/DX2                !
 ! D26   D(3,1,4,62)          -141.6803         estimate D2E/DX2                !
 ! D27   D(7,1,4,28)            54.6897         estimate D2E/DX2                !
 ! D28   D(7,1,4,51)           173.4704         estimate D2E/DX2                !
 ! D29   D(7,1,4,62)           -68.2942         estimate D2E/DX2                !
 ! D30   D(8,1,4,28)           -92.0586         estimate D2E/DX2                !
 ! D31   D(8,1,4,51)            26.7221         estimate D2E/DX2                !
 ! D32   D(8,1,4,62)           144.9574         estimate D2E/DX2                !
 ! D33   D(1,2,9,10)            -6.9408         estimate D2E/DX2                !
 ! D34   D(1,2,9,17)           167.8639         estimate D2E/DX2                !
 ! D35   D(19,2,9,10)          173.1329         estimate D2E/DX2                !
 ! D36   D(19,2,9,17)          -12.0625         estimate D2E/DX2                !
 ! D37   D(1,2,19,20)          167.8735         estimate D2E/DX2                !
 ! D38   D(1,2,19,28)           -6.9406         estimate D2E/DX2                !
 ! D39   D(9,2,19,20)          -12.2001         estimate D2E/DX2                !
 ! D40   D(9,2,19,28)          172.9857         estimate D2E/DX2                !
 ! D41   D(1,3,10,9)            21.6531         estimate D2E/DX2                !
 ! D42   D(1,3,10,11)         -160.4676         estimate D2E/DX2                !
 ! D43   D(29,3,10,9)         -102.1936         estimate D2E/DX2                !
 ! D44   D(29,3,10,11)          75.6857         estimate D2E/DX2                !
 ! D45   D(40,3,10,9)          150.7958         estimate D2E/DX2                !
 ! D46   D(40,3,10,11)         -31.3249         estimate D2E/DX2                !
 ! D47   D(1,3,29,30)         -119.1352         estimate D2E/DX2                !
 ! D48   D(1,3,29,38)           59.3435         estimate D2E/DX2                !
 ! D49   D(10,3,29,30)           4.5686         estimate D2E/DX2                !
 ! D50   D(10,3,29,38)        -176.9527         estimate D2E/DX2                !
 ! D51   D(40,3,29,30)         114.2151         estimate D2E/DX2                !
 ! D52   D(40,3,29,38)         -67.3062         estimate D2E/DX2                !
 ! D53   D(1,3,40,41)         -150.1763         estimate D2E/DX2                !
 ! D54   D(1,3,40,49)           30.7354         estimate D2E/DX2                !
 ! D55   D(10,3,40,41)          82.9567         estimate D2E/DX2                !
 ! D56   D(10,3,40,49)         -96.1317         estimate D2E/DX2                !
 ! D57   D(29,3,40,41)         -25.8885         estimate D2E/DX2                !
 ! D58   D(29,3,40,49)         155.0232         estimate D2E/DX2                !
 ! D59   D(1,4,28,19)           21.6122         estimate D2E/DX2                !
 ! D60   D(1,4,28,26)         -160.5023         estimate D2E/DX2                !
 ! D61   D(51,4,28,19)        -102.2315         estimate D2E/DX2                !
 ! D62   D(51,4,28,26)          75.654          estimate D2E/DX2                !
 ! D63   D(62,4,28,19)         150.7539         estimate D2E/DX2                !
 ! D64   D(62,4,28,26)         -31.3606         estimate D2E/DX2                !
 ! D65   D(1,4,51,52)         -119.1077         estimate D2E/DX2                !
 ! D66   D(1,4,51,60)           59.3603         estimate D2E/DX2                !
 ! D67   D(28,4,51,52)           4.5992         estimate D2E/DX2                !
 ! D68   D(28,4,51,60)        -176.9328         estimate D2E/DX2                !
 ! D69   D(62,4,51,52)         114.2429         estimate D2E/DX2                !
 ! D70   D(62,4,51,60)         -67.2891         estimate D2E/DX2                !
 ! D71   D(1,4,62,63)         -150.1353         estimate D2E/DX2                !
 ! D72   D(1,4,62,71)           30.7837         estimate D2E/DX2                !
 ! D73   D(28,4,62,63)          82.997          estimate D2E/DX2                !
 ! D74   D(28,4,62,71)         -96.084          estimate D2E/DX2                !
 ! D75   D(51,4,62,63)         -25.8517         estimate D2E/DX2                !
 ! D76   D(51,4,62,71)         155.0672         estimate D2E/DX2                !
 ! D77   D(2,9,10,3)            -8.0625         estimate D2E/DX2                !
 ! D78   D(2,9,10,11)          174.1153         estimate D2E/DX2                !
 ! D79   D(17,9,10,3)          176.7984         estimate D2E/DX2                !
 ! D80   D(17,9,10,11)          -1.0238         estimate D2E/DX2                !
 ! D81   D(2,9,17,15)         -174.0371         estimate D2E/DX2                !
 ! D82   D(2,9,17,18)            5.0652         estimate D2E/DX2                !
 ! D83   D(10,9,17,15)           0.9587         estimate D2E/DX2                !
 ! D84   D(10,9,17,18)        -179.939          estimate D2E/DX2                !
 ! D85   D(3,10,11,12)           3.328          estimate D2E/DX2                !
 ! D86   D(3,10,11,13)        -177.442          estimate D2E/DX2                !
 ! D87   D(9,10,11,12)        -178.8564         estimate D2E/DX2                !
 ! D88   D(9,10,11,13)           0.3736         estimate D2E/DX2                !
 ! D89   D(10,11,13,14)       -179.3405         estimate D2E/DX2                !
 ! D90   D(10,11,13,15)          0.3971         estimate D2E/DX2                !
 ! D91   D(12,11,13,14)         -0.102          estimate D2E/DX2                !
 ! D92   D(12,11,13,15)        179.6356         estimate D2E/DX2                !
 ! D93   D(11,13,15,16)       -179.8597         estimate D2E/DX2                !
 ! D94   D(11,13,15,17)         -0.4655         estimate D2E/DX2                !
 ! D95   D(14,13,15,16)         -0.1239         estimate D2E/DX2                !
 ! D96   D(14,13,15,17)        179.2703         estimate D2E/DX2                !
 ! D97   D(13,15,17,9)          -0.2373         estimate D2E/DX2                !
 ! D98   D(13,15,17,18)       -179.3479         estimate D2E/DX2                !
 ! D99   D(16,15,17,9)         179.1562         estimate D2E/DX2                !
 ! D100  D(16,15,17,18)          0.0455         estimate D2E/DX2                !
 ! D101  D(2,19,20,21)           5.0523         estimate D2E/DX2                !
 ! D102  D(2,19,20,22)        -174.0523         estimate D2E/DX2                !
 ! D103  D(28,19,20,21)       -179.9427         estimate D2E/DX2                !
 ! D104  D(28,19,20,22)          0.9527         estimate D2E/DX2                !
 ! D105  D(2,19,28,4)           -8.0379         estimate D2E/DX2                !
 ! D106  D(2,19,28,26)         174.1337         estimate D2E/DX2                !
 ! D107  D(20,19,28,4)         176.8141         estimate D2E/DX2                !
 ! D108  D(20,19,28,26)         -1.0144         estimate D2E/DX2                !
 ! D109  D(19,20,22,23)        179.157          estimate D2E/DX2                !
 ! D110  D(19,20,22,24)         -0.2388         estimate D2E/DX2                !
 ! D111  D(21,20,22,23)          0.044          estimate D2E/DX2                !
 ! D112  D(21,20,22,24)       -179.3517         estimate D2E/DX2                !
 ! D113  D(20,22,24,25)        179.2739         estimate D2E/DX2                !
 ! D114  D(20,22,24,26)         -0.4598         estimate D2E/DX2                !
 ! D115  D(23,22,24,25)         -0.1226         estimate D2E/DX2                !
 ! D116  D(23,22,24,26)       -179.8563         estimate D2E/DX2                !
 ! D117  D(22,24,26,27)        179.6332         estimate D2E/DX2                !
 ! D118  D(22,24,26,28)          0.3947         estimate D2E/DX2                !
 ! D119  D(25,24,26,27)         -0.1023         estimate D2E/DX2                !
 ! D120  D(25,24,26,28)       -179.3407         estimate D2E/DX2                !
 ! D121  D(24,26,28,4)        -177.454          estimate D2E/DX2                !
 ! D122  D(24,26,28,19)          0.3681         estimate D2E/DX2                !
 ! D123  D(27,26,28,4)           3.3161         estimate D2E/DX2                !
 ! D124  D(27,26,28,19)       -178.8618         estimate D2E/DX2                !
 ! D125  D(3,29,30,31)          -1.3344         estimate D2E/DX2                !
 ! D126  D(3,29,30,32)         178.5295         estimate D2E/DX2                !
 ! D127  D(38,29,30,31)       -179.7974         estimate D2E/DX2                !
 ! D128  D(38,29,30,32)          0.0665         estimate D2E/DX2                !
 ! D129  D(3,29,38,36)        -179.0152         estimate D2E/DX2                !
 ! D130  D(3,29,38,39)           0.7835         estimate D2E/DX2                !
 ! D131  D(30,29,38,36)         -0.4938         estimate D2E/DX2                !
 ! D132  D(30,29,38,39)        179.3049         estimate D2E/DX2                !
 ! D133  D(29,30,32,33)       -179.6545         estimate D2E/DX2                !
 ! D134  D(29,30,32,34)          0.2699         estimate D2E/DX2                !
 ! D135  D(31,30,32,33)          0.2093         estimate D2E/DX2                !
 ! D136  D(31,30,32,34)       -179.8663         estimate D2E/DX2                !
 ! D137  D(30,32,34,35)       -179.9597         estimate D2E/DX2                !
 ! D138  D(30,32,34,36)         -0.1804         estimate D2E/DX2                !
 ! D139  D(33,32,34,35)         -0.0358         estimate D2E/DX2                !
 ! D140  D(33,32,34,36)        179.7435         estimate D2E/DX2                !
 ! D141  D(32,34,36,37)       -179.8164         estimate D2E/DX2                !
 ! D142  D(32,34,36,38)         -0.2477         estimate D2E/DX2                !
 ! D143  D(35,34,36,37)         -0.037          estimate D2E/DX2                !
 ! D144  D(35,34,36,38)        179.5318         estimate D2E/DX2                !
 ! D145  D(34,36,38,29)          0.5862         estimate D2E/DX2                !
 ! D146  D(34,36,38,39)       -179.2125         estimate D2E/DX2                !
 ! D147  D(37,36,38,29)       -179.8427         estimate D2E/DX2                !
 ! D148  D(37,36,38,39)          0.3586         estimate D2E/DX2                !
 ! D149  D(3,40,41,42)           2.3687         estimate D2E/DX2                !
 ! D150  D(3,40,41,43)        -178.4104         estimate D2E/DX2                !
 ! D151  D(49,40,41,42)       -178.5369         estimate D2E/DX2                !
 ! D152  D(49,40,41,43)          0.684          estimate D2E/DX2                !
 ! D153  D(3,40,49,47)         178.2636         estimate D2E/DX2                !
 ! D154  D(3,40,49,50)          -2.5879         estimate D2E/DX2                !
 ! D155  D(41,40,49,47)         -0.8436         estimate D2E/DX2                !
 ! D156  D(41,40,49,50)        178.3048         estimate D2E/DX2                !
 ! D157  D(40,41,43,44)       -179.7952         estimate D2E/DX2                !
 ! D158  D(40,41,43,45)         -0.1368         estimate D2E/DX2                !
 ! D159  D(42,41,43,44)         -0.5718         estimate D2E/DX2                !
 ! D160  D(42,41,43,45)        179.0866         estimate D2E/DX2                !
 ! D161  D(41,43,45,46)       -179.7109         estimate D2E/DX2                !
 ! D162  D(41,43,45,47)         -0.2594         estimate D2E/DX2                !
 ! D163  D(44,43,45,46)         -0.0546         estimate D2E/DX2                !
 ! D164  D(44,43,45,47)        179.3968         estimate D2E/DX2                !
 ! D165  D(43,45,47,48)       -179.2981         estimate D2E/DX2                !
 ! D166  D(43,45,47,49)          0.1002         estimate D2E/DX2                !
 ! D167  D(46,45,47,48)          0.1532         estimate D2E/DX2                !
 ! D168  D(46,45,47,49)        179.5515         estimate D2E/DX2                !
 ! D169  D(45,47,49,40)          0.4571         estimate D2E/DX2                !
 ! D170  D(45,47,49,50)       -178.6929         estimate D2E/DX2                !
 ! D171  D(48,47,49,40)        179.8596         estimate D2E/DX2                !
 ! D172  D(48,47,49,50)          0.7095         estimate D2E/DX2                !
 ! D173  D(4,51,52,53)          -1.3484         estimate D2E/DX2                !
 ! D174  D(4,51,52,54)         178.5192         estimate D2E/DX2                !
 ! D175  D(60,51,52,53)       -179.8006         estimate D2E/DX2                !
 ! D176  D(60,51,52,54)          0.067          estimate D2E/DX2                !
 ! D177  D(4,51,60,58)        -179.0048         estimate D2E/DX2                !
 ! D178  D(4,51,60,61)           0.7974         estimate D2E/DX2                !
 ! D179  D(52,51,60,58)         -0.4938         estimate D2E/DX2                !
 ! D180  D(52,51,60,61)        179.3085         estimate D2E/DX2                !
 ! D181  D(51,52,54,55)       -179.6561         estimate D2E/DX2                !
 ! D182  D(51,52,54,56)          0.2684         estimate D2E/DX2                !
 ! D183  D(53,52,54,55)          0.2114         estimate D2E/DX2                !
 ! D184  D(53,52,54,56)       -179.8641         estimate D2E/DX2                !
 ! D185  D(52,54,56,57)       -179.9571         estimate D2E/DX2                !
 ! D186  D(52,54,56,58)         -0.1785         estimate D2E/DX2                !
 ! D187  D(55,54,56,57)         -0.0331         estimate D2E/DX2                !
 ! D188  D(55,54,56,58)        179.7455         estimate D2E/DX2                !
 ! D189  D(54,56,58,59)       -179.8181         estimate D2E/DX2                !
 ! D190  D(54,56,58,60)         -0.2491         estimate D2E/DX2                !
 ! D191  D(57,56,58,59)         -0.0394         estimate D2E/DX2                !
 ! D192  D(57,56,58,60)        179.5297         estimate D2E/DX2                !
 ! D193  D(56,58,60,51)          0.5866         estimate D2E/DX2                !
 ! D194  D(56,58,60,61)       -179.2156         estimate D2E/DX2                !
 ! D195  D(59,58,60,51)       -179.842          estimate D2E/DX2                !
 ! D196  D(59,58,60,61)          0.3558         estimate D2E/DX2                !
 ! D197  D(4,62,63,64)           2.3723         estimate D2E/DX2                !
 ! D198  D(4,62,63,65)        -178.4039         estimate D2E/DX2                !
 ! D199  D(71,62,63,64)       -178.5405         estimate D2E/DX2                !
 ! D200  D(71,62,63,65)          0.6833         estimate D2E/DX2                !
 ! D201  D(4,62,71,69)         178.2551         estimate D2E/DX2                !
 ! D202  D(4,62,71,72)          -2.5951         estimate D2E/DX2                !
 ! D203  D(63,62,71,69)         -0.8451         estimate D2E/DX2                !
 ! D204  D(63,62,71,72)        178.3047         estimate D2E/DX2                !
 ! D205  D(62,63,65,66)       -179.7935         estimate D2E/DX2                !
 ! D206  D(62,63,65,67)         -0.135          estimate D2E/DX2                !
 ! D207  D(64,63,65,66)         -0.5673         estimate D2E/DX2                !
 ! D208  D(64,63,65,67)        179.0913         estimate D2E/DX2                !
 ! D209  D(63,65,67,68)       -179.7129         estimate D2E/DX2                !
 ! D210  D(63,65,67,69)         -0.2602         estimate D2E/DX2                !
 ! D211  D(66,65,67,68)         -0.0564         estimate D2E/DX2                !
 ! D212  D(66,65,67,69)        179.3963         estimate D2E/DX2                !
 ! D213  D(65,67,69,70)       -179.2995         estimate D2E/DX2                !
 ! D214  D(65,67,69,71)          0.0987         estimate D2E/DX2                !
 ! D215  D(68,67,69,70)          0.1531         estimate D2E/DX2                !
 ! D216  D(68,67,69,71)        179.5513         estimate D2E/DX2                !
 ! D217  D(67,69,71,62)          0.4597         estimate D2E/DX2                !
 ! D218  D(67,69,71,72)       -178.6917         estimate D2E/DX2                !
 ! D219  D(70,69,71,62)        179.8621         estimate D2E/DX2                !
 ! D220  D(70,69,71,72)          0.7107         estimate D2E/DX2                !
 --------------------------------------------------------------------------------
 Trust Radius=3.00D-01 FncErr=1.00D-07 GrdErr=1.00D-06
 Number of steps in this run=    432 maximum allowed number of steps=    432.
 GradGradGradGradGradGradGradGradGradGradGradGradGradGradGradGradGradGrad

 Leave Link  103 at Fri Apr  3 23:10:40 2020, MaxMem=  1879048192 cpu:         0.1
 (Enter /home/programs/G09_D/g09/l202.exe)
 Stoichiometry    C38H28O2P2RuZn
 Framework group  C1[X(C38H28O2P2RuZn)]
 Deg. of freedom   210
 Full point group                 C1      NOp   1
 Largest Abelian subgroup         C1      NOp   1
 Largest concise Abelian subgroup C1      NOp   1
                         Standard orientation:                         
 ---------------------------------------------------------------------
 Center     Atomic      Atomic             Coordinates (Angstroms)
 Number     Number       Type             X           Y           Z
 ---------------------------------------------------------------------
      1         44           0       -0.000045   -0.681122    0.002818
      2         30           0        0.000054    2.044169   -0.007280
      3         15           0        2.374994   -0.303484   -0.051142
      4         15           0       -2.375086   -0.303076    0.053407
      5          8           0        0.059911    0.247473    2.959874
      6          8           0       -0.059838    0.224179   -2.961451
      7          6           0        0.043923   -0.116968    1.841712
      8          6           0       -0.043917   -0.131625   -1.840529
      9          6           0        1.870373    2.461383   -0.515687
     10          6           0        2.835627    1.422555   -0.619830
     11          6           0        4.142646    1.665793   -1.096623
     12          1           0        4.864509    0.847136   -1.186168
     13          6           0        4.519531    2.962919   -1.475325
     14          1           0        5.530060    3.147777   -1.855039
     15          6           0        3.594737    4.013644   -1.369314
     16          1           0        3.882363    5.028888   -1.665743
     17          6           0        2.297178    3.758347   -0.894869
     18          1           0        1.591464    4.595683   -0.832409
     19          6           0       -1.870507    2.465307    0.497005
     20          6           0       -2.297453    3.765123    0.866137
     21          1           0       -1.591606    4.601898    0.797899
     22          6           0       -3.595324    4.024120    1.337675
     23          1           0       -3.883068    5.041590    1.626262
     24          6           0       -4.520350    2.974337    1.450841
     25          1           0       -5.531150    3.162173    1.828342
     26          6           0       -4.143304    1.674352    1.082239
     27          1           0       -4.865321    0.856449    1.177383
     28          6           0       -2.835923    1.427387    0.608330
     29          6           0        3.191184   -0.477117    1.616441
     30          6           0        3.876870    0.588749    2.230285
     31          1           0        3.961766    1.551073    1.717315
     32          6           0        4.449730    0.417766    3.502796
     33          1           0        4.975987    1.254263    3.974232
     34          6           0        4.347335   -0.814178    4.165467
     35          1           0        4.793996   -0.943852    5.156646
     36          6           0        3.665180   -1.881402    3.555209
     37          1           0        3.578713   -2.845007    4.067913
     38          6           0        3.084389   -1.714012    2.290610
     39          1           0        2.542923   -2.544100    1.824722
     40          6           0        3.394609   -1.463947   -1.102204
     41          6           0        4.732710   -1.767641   -0.767615
     42          1           0        5.177148   -1.351311    0.141739
     43          6           0        5.493963   -2.615793   -1.587743
     44          1           0        6.529234   -2.845668   -1.314816
     45          6           0        4.929046   -3.171437   -2.746672
     46          1           0        5.522438   -3.836391   -3.382635
     47          6           0        3.596785   -2.880221   -3.080539
     48          1           0        3.144676   -3.318304   -3.976228
     49          6           0        2.831431   -2.035552   -2.261619
     50          1           0        1.788530   -1.831751   -2.518167
     51          6           0       -3.190845   -0.490022   -1.612934
     52          6           0       -3.875899    0.571085   -2.235652
     53          1           0       -3.960733    1.537525   -1.730480
     54          6           0       -4.448279    0.390029   -3.506991
     55          1           0       -4.974072    1.222878   -3.985379
     56          6           0       -4.345994   -0.847257   -4.159659
     57          1           0       -4.792243   -0.984761   -5.149976
     58          6           0       -3.664479   -1.909735   -3.540507
     59          1           0       -3.578135   -2.877475   -4.045385
     60          6           0       -3.084170   -1.732367   -2.277045
     61          1           0       -2.543237   -2.558865   -1.804210
     62          6           0       -3.394862   -1.455117    1.113538
     63          6           0       -4.732650   -1.762210    0.780794
     64          1           0       -5.176752   -1.353778   -0.132276
     65          6           0       -5.493987   -2.603684    1.607693
     66          1           0       -6.528986   -2.836337    1.336156
     67          6           0       -4.929515   -3.149180    2.771623
     68          1           0       -5.523003   -3.808936    3.412910
     69          6           0       -3.597546   -2.854558    3.103779
     70          1           0       -3.145785   -3.284776    4.003433
     71          6           0       -2.832100   -2.016600    2.278102
     72          1           0       -1.789420   -1.810183    2.533489
 ---------------------------------------------------------------------
 Rotational constants (GHZ):      0.0923599      0.0509758      0.0506114
 Leave Link  202 at Fri Apr  3 23:10:40 2020, MaxMem=  1879048192 cpu:         0.1
 (Enter /home/programs/G09_D/g09/l301.exe)
 General basis read from cards:  (5D, 7F)
 Centers:       1
 SDDAll
 *****
 Centers:       2
 SDDAll
 *****
 Centers:       3      4
 SDDALL
 D 1 1.
     Exponent=  3.8700000000D-01 Coefficients=  1.0000000000D+00
 *****
 Centers:       7      8      9     10     11     13     15     17     19     20
 Centers:      22     24     26     28     29     30     32     34     36     38
 Centers:      40     41     43     45     47     49     51     52     54     56
 Centers:      58     60     62     63     65     67     69     71     12     14
 Centers:      16     18     21     23     25     27     31     33     35     37
 Centers:      39     42     44     46     48     50     53     55     57     59
 Centers:      61     64     66     68     70     72      5      6
 6-31g**
 *****
 ======================================================================================================
                                       Pseudopotential Parameters
 ======================================================================================================
  Center     Atomic      Valence      Angular      Power
  Number     Number     Electrons     Momentum     of R      Exponent        Coefficient   SO-Coeffient
 ======================================================================================================
    1         44           16
                                      G and up 
                                                     2        1.0000000        0.00000000    0.00000000
                                      S - G
                                                     2       11.1052690      209.82297100    0.00000000
                                                     2        5.4147450       30.65472600    0.00000000
                                      P - G
                                                     2        9.7712710      146.33618200    0.00000000
                                                     2        5.0739910       24.12787700    0.00000000
                                      D - G
                                                     2        7.6714230       67.51589700    0.00000000
                                                     2        4.1365650        9.87010400    0.00000000
                                      F - G
                                                     2       11.3600000      -28.34061600    0.00000000
                                                     2        5.6800000       -4.94462900    0.00000000
    2         30           20
                                      F and up 
                                                     2        1.0000000        0.00000000    0.00000000
                                      S - F
                                                     2       34.1500000      399.98728200    0.00000000
                                                     2       14.5900000       85.48565500    0.00000000
                                      P - F
                                                     2       39.7800000      277.14896000    0.00000000
                                                     2       14.9500000       69.05220500    0.00000000
                                      D - F
                                                     2       43.8000000      -34.14934900    0.00000000
                                                     2       14.9800000       -3.29183100    0.00000000
    3         15            5
                                      F and up 
                                                     2        1.0000000        0.00000000    0.00000000
                                      S - F
                                                     2        2.9405599       26.53226131    0.00000000
                                      P - F
                                                     2        2.2277126       11.49721021    0.00000000
                                      D - F
                                                     2        5.6617060      -16.77278000    0.00000000
    4         15            5
                                      F and up 
                                                     2        1.0000000        0.00000000    0.00000000
                                      S - F
                                                     2        2.9405599       26.53226131    0.00000000
                                      P - F
                                                     2        2.2277126       11.49721021    0.00000000
                                      D - F
                                                     2        5.6617060      -16.77278000    0.00000000
    5          8
                                   No pseudopotential on this center.
    6          8
                                   No pseudopotential on this center.
    7          6
                                   No pseudopotential on this center.
    8          6
                                   No pseudopotential on this center.
    9          6
                                   No pseudopotential on this center.
   10          6
                                   No pseudopotential on this center.
   11          6
                                   No pseudopotential on this center.
   12          1
                                   No pseudopotential on this center.
   13          6
                                   No pseudopotential on this center.
   14          1
                                   No pseudopotential on this center.
   15          6
                                   No pseudopotential on this center.
   16          1
                                   No pseudopotential on this center.
   17          6
                                   No pseudopotential on this center.
   18          1
                                   No pseudopotential on this center.
   19          6
                                   No pseudopotential on this center.
   20          6
                                   No pseudopotential on this center.
   21          1
                                   No pseudopotential on this center.
   22          6
                                   No pseudopotential on this center.
   23          1
                                   No pseudopotential on this center.
   24          6
                                   No pseudopotential on this center.
   25          1
                                   No pseudopotential on this center.
   26          6
                                   No pseudopotential on this center.
   27          1
                                   No pseudopotential on this center.
   28          6
                                   No pseudopotential on this center.
   29          6
                                   No pseudopotential on this center.
   30          6
                                   No pseudopotential on this center.
   31          1
                                   No pseudopotential on this center.
   32          6
                                   No pseudopotential on this center.
   33          1
                                   No pseudopotential on this center.
   34          6
                                   No pseudopotential on this center.
   35          1
                                   No pseudopotential on this center.
   36          6
                                   No pseudopotential on this center.
   37          1
                                   No pseudopotential on this center.
   38          6
                                   No pseudopotential on this center.
   39          1
                                   No pseudopotential on this center.
   40          6
                                   No pseudopotential on this center.
   41          6
                                   No pseudopotential on this center.
   42          1
                                   No pseudopotential on this center.
   43          6
                                   No pseudopotential on this center.
   44          1
                                   No pseudopotential on this center.
   45          6
                                   No pseudopotential on this center.
   46          1
                                   No pseudopotential on this center.
   47          6
                                   No pseudopotential on this center.
   48          1
                                   No pseudopotential on this center.
   49          6
                                   No pseudopotential on this center.
   50          1
                                   No pseudopotential on this center.
   51          6
                                   No pseudopotential on this center.
   52          6
                                   No pseudopotential on this center.
   53          1
                                   No pseudopotential on this center.
   54          6
                                   No pseudopotential on this center.
   55          1
                                   No pseudopotential on this center.
   56          6
                                   No pseudopotential on this center.
   57          1
                                   No pseudopotential on this center.
   58          6
                                   No pseudopotential on this center.
   59          1
                                   No pseudopotential on this center.
   60          6
                                   No pseudopotential on this center.
   61          1
                                   No pseudopotential on this center.
   62          6
                                   No pseudopotential on this center.
   63          6
                                   No pseudopotential on this center.
   64          1
                                   No pseudopotential on this center.
   65          6
                                   No pseudopotential on this center.
   66          1
                                   No pseudopotential on this center.
   67          6
                                   No pseudopotential on this center.
   68          1
                                   No pseudopotential on this center.
   69          6
                                   No pseudopotential on this center.
   70          1
                                   No pseudopotential on this center.
   71          6
                                   No pseudopotential on this center.
   72          1
                                   No pseudopotential on this center.
 ======================================================================================================
 Ernie: Thresh=  0.10000D-02 Tol=  0.10000D-05 Strict=F.
 There are   846 symmetry adapted cartesian basis functions of A   symmetry.
 There are   798 symmetry adapted basis functions of A   symmetry.
   798 basis functions,  1490 primitive gaussians,   846 cartesian basis functions
   159 alpha electrons      159 beta electrons
       nuclear repulsion energy      5476.8961422133 Hartrees.
 IExCor=  404 DFT=T Ex=B Corr=P86 ExCW=0 ScaHFX=  0.000000
 ScaDFX=  1.000000  1.000000  1.000000  1.000000 ScalE2=  1.000000  1.000000
 IRadAn=      5 IRanWt=     -1 IRanGd=            0 ICorTp=0 IEmpDi=  4
 NAtoms=   72 NActive=   72 NUniq=   72 SFac= 1.00D+00 NAtFMM=   60 NAOKFM=T Big=T
 Integral buffers will be    131072 words long.
 Raffenetti 2 integral format.
 Two-electron integral symmetry is turned on.
 Leave Link  301 at Fri Apr  3 23:10:41 2020, MaxMem=  1879048192 cpu:         0.7
 (Enter /home/programs/G09_D/g09/l302.exe)
 NPDir=0 NMtPBC=     1 NCelOv=     1 NCel=       1 NClECP=     1 NCelD=      1
         NCelK=      1 NCelE2=     1 NClLst=     1 CellRange=     0.0.
 One-electron integrals computed using PRISM.
   1 Symmetry operations used in ECPInt.
 ECPInt:  NShTT=   39903 NPrTT=  205958 LenC2=   29208 LenP2D=   83086.
 LDataN:  DoStor=T MaxTD1= 6 Len=  172
 NBasis=   798 RedAO= T EigKep=  4.58D-04  NBF=   798
 NBsUse=   798 1.00D-06 EigRej= -1.00D+00 NBFU=   798
 Precomputing XC quadrature grid using
 IXCGrd= 4 IRadAn=           5 IRanWt=          -1 IRanGd=           0 AccXCQ= 0.00D+00.
 Defaulting to unpruned grid for atomic number  44.
 Generated NRdTot=       0 NPtTot=           0 NUsed=           0 NTot=          32
 NSgBfM=   797   797   801   801   804 MxSgAt=    72 MxSgA2=    72.
 Leave Link  302 at Fri Apr  3 23:10:45 2020, MaxMem=  1879048192 cpu:        31.5
 (Enter /home/programs/G09_D/g09/l303.exe)
 DipDrv:  MaxL=1.
 Leave Link  303 at Fri Apr  3 23:10:46 2020, MaxMem=  1879048192 cpu:         1.2
 (Enter /home/programs/G09_D/g09/l401.exe)
 ExpMin= 1.00D-02 ExpMax= 5.48D+03 ExpMxC= 8.25D+02 IAcc=3 IRadAn=         5 AccDes= 0.00D+00
 Harris functional with IExCor=  404 and IRadAn=       5 diagonalized for initial guess.
 HarFok:  IExCor=  404 AccDes= 0.00D+00 IRadAn=         5 IDoV= 1 UseB2=F ITyADJ=14
 ICtDFT=  3500011 ScaDFX=  1.000000  1.000000  1.000000  1.000000
 Defaulting to unpruned grid for atomic number  44.
 Defaulting to unpruned grid for atomic number  44.
 Defaulting to unpruned grid for atomic number  44.
 Defaulting to unpruned grid for atomic number  44.
 Defaulting to unpruned grid for atomic number  44.
 Defaulting to unpruned grid for atomic number  44.
 Defaulting to unpruned grid for atomic number  44.
 Defaulting to unpruned grid for atomic number  44.
 FoFCou: FMM=F IPFlag=           0 FMFlag=      100000 FMFlg1=        2001
         NFxFlg=           0 DoJE=T BraDBF=F KetDBF=T FulRan=T
         wScrn=  0.000000 ICntrl=     500 IOpCl=  0 I1Cent=   200000004 NGrid=           0
         NMat0=    1 NMatS0=      1 NMatT0=    0 NMatD0=    1 NMtDS0=    0 NMtDT0=    0
 Petite list used in FoFCou.
 Harris En= -1951.39551851359    
 JPrj=0 DoOrth=F DoCkMO=F.
 Leave Link  401 at Fri Apr  3 23:11:00 2020, MaxMem=  1879048192 cpu:       111.4
 (Enter /home/programs/G09_D/g09/l502.exe)
 Closed shell SCF:
 Using DIIS extrapolation, IDIIS=  1040.
 Integral symmetry usage will be decided dynamically.
 IVT=     2178766 IEndB=     2178766 NGot=  1879048192 MDV=  1877602629
 LenX=  1877602629 LenY=  1876886067
 Requested convergence on RMS density matrix=1.00D-08 within 128 cycles.
 Requested convergence on MAX density matrix=1.00D-06.
 Requested convergence on             energy=1.00D-06.
 No special actions if energy rises.
 Fock matrices will be formed incrementally for  20 cycles.

 Cycle   1  Pass 1  IDiag  1:
 FoFJK:  IHMeth= 1 ICntrl=     500 DoSepK=F KAlg= 0 I1Cent=   0 FoldK=F
 IRaf= 800000000 NMat=   1 IRICut=       1 DoRegI=T DoRafI=F ISym2E= 0.
 FoFCou: FMM=T IPFlag=           0 FMFlag=      100000 FMFlg1=        2001
         NFxFlg=           0 DoJE=T BraDBF=F KetDBF=F FulRan=T
         wScrn=  0.000000 ICntrl=     500 IOpCl=  0 I1Cent=           0 NGrid=           0
         NMat0=    1 NMatS0=      1 NMatT0=    0 NMatD0=    1 NMtDS0=    0 NMtDT0=    0
 Symmetry not used in FoFCou.
 FMM levels:  10  Number of levels for PrismC:   9
 Defaulting to unpruned grid for atomic number  44.
 Defaulting to unpruned grid for atomic number  44.
 Defaulting to unpruned grid for atomic number  44.
 Defaulting to unpruned grid for atomic number  44.
 Defaulting to unpruned grid for atomic number  44.
 Defaulting to unpruned grid for atomic number  44.
 Defaulting to unpruned grid for atomic number  44.
 Defaulting to unpruned grid for atomic number  44.
 E= -1949.37591911516    
 DIIS: error= 5.55D-02 at cycle   1 NSaved=   1.
 NSaved= 1 IEnMin= 1 EnMin= -1949.37591911516     IErMin= 1 ErrMin= 5.55D-02
 ErrMax= 5.55D-02  0.00D+00 EMaxC= 1.00D-01 BMatC= 1.65D+00 BMatP= 1.65D+00
 IDIUse=3 WtCom= 4.45D-01 WtEn= 5.55D-01
 Coeff-Com:  0.100D+01
 Coeff-En:   0.100D+01
 Coeff:      0.100D+01
 Gap=     0.603 Goal=   None    Shift=    0.000
 GapD=    0.603 DampG=2.000 DampE=0.250 DampFc=0.5000 IDamp=-1.
 Damping current iteration by 5.00D-01
 RMSDP=6.28D-03 MaxDP=1.59D+00              OVMax= 5.87D-01

 Cycle   2  Pass 1  IDiag  1:
 RMSU=  3.13D-03    CP:  9.81D-01
 E= -1947.25546753165     Delta-E=        2.120451583508 Rises=F Damp=T
 DIIS: error= 6.43D-02 at cycle   2 NSaved=   2.
 NSaved= 2 IEnMin= 1 EnMin= -1949.37591911516     IErMin= 1 ErrMin= 5.55D-02
 ErrMax= 6.43D-02  0.00D+00 EMaxC= 1.00D-01 BMatC= 1.78D+00 BMatP= 1.65D+00
 IDIUse=3 WtCom= 3.57D-01 WtEn= 6.43D-01
 Coeff-Com:  0.511D+00 0.489D+00
 Coeff-En:   0.706D+00 0.294D+00
 Coeff:      0.636D+00 0.364D+00
 Gap=     0.008 Goal=   None    Shift=    0.000
 RMSDP=2.78D-03 MaxDP=7.91D-01 DE= 2.12D+00 OVMax= 9.29D-01

 Cycle   3  Pass 1  IDiag  1:
 RMSU=  2.19D-03    CP:  9.72D-01  4.52D-01
 E= -1949.94318852836     Delta-E=       -2.687720996709 Rises=F Damp=F
 DIIS: error= 3.13D-02 at cycle   3 NSaved=   3.
 NSaved= 3 IEnMin= 3 EnMin= -1949.94318852836     IErMin= 3 ErrMin= 3.13D-02
 ErrMax= 3.13D-02  0.00D+00 EMaxC= 1.00D-01 BMatC= 9.53D-01 BMatP= 1.65D+00
 IDIUse=3 WtCom= 6.87D-01 WtEn= 3.13D-01
 Coeff-Com:  0.405D+00 0.214D+00 0.381D+00
 Coeff-En:   0.400D+00 0.000D+00 0.600D+00
 Coeff:      0.403D+00 0.147D+00 0.450D+00
 Gap=     0.127 Goal=   None    Shift=    0.000
 RMSDP=1.98D-03 MaxDP=3.02D-01 DE=-2.69D+00 OVMax= 3.12D-01

 Cycle   4  Pass 1  IDiag  1:
 RMSU=  1.19D-03    CP:  9.83D-01  2.56D-01  3.39D-01
 E= -1950.32255879823     Delta-E=       -0.379370269877 Rises=F Damp=F
 DIIS: error= 3.25D-02 at cycle   4 NSaved=   4.
 NSaved= 4 IEnMin= 4 EnMin= -1950.32255879823     IErMin= 3 ErrMin= 3.13D-02
 ErrMax= 3.25D-02  0.00D+00 EMaxC= 1.00D-01 BMatC= 5.80D-01 BMatP= 9.53D-01
 IDIUse=3 WtCom= 6.75D-01 WtEn= 3.25D-01
 Coeff-Com:  0.245D+00 0.126D+00 0.370D+00 0.259D+00
 Coeff-En:   0.000D+00 0.000D+00 0.400D+00 0.600D+00
 Coeff:      0.165D+00 0.850D-01 0.380D+00 0.370D+00
 Gap=     0.085 Goal=   None    Shift=    0.000
 RMSDP=1.15D-03 MaxDP=1.96D-01 DE=-3.79D-01 OVMax= 2.43D-01

 Cycle   5  Pass 1  IDiag  1:
 RMSU=  6.45D-04    CP:  9.82D-01  2.58D-01  5.21D-01  2.75D-01
 E= -1950.76405848578     Delta-E=       -0.441499687543 Rises=F Damp=F
 DIIS: error= 1.06D-02 at cycle   5 NSaved=   5.
 NSaved= 5 IEnMin= 5 EnMin= -1950.76405848578     IErMin= 5 ErrMin= 1.06D-02
 ErrMax= 1.06D-02  0.00D+00 EMaxC= 1.00D-01 BMatC= 1.01D-01 BMatP= 5.80D-01
 IDIUse=3 WtCom= 8.94D-01 WtEn= 1.06D-01
 Coeff-Com:  0.733D-01 0.268D-01 0.218D+00 0.281D+00 0.401D+00
 Coeff-En:   0.000D+00 0.000D+00 0.000D+00 0.201D+00 0.799D+00
 Coeff:      0.655D-01 0.239D-01 0.194D+00 0.273D+00 0.443D+00
 Gap=     0.077 Goal=   None    Shift=    0.000
 RMSDP=4.93D-04 MaxDP=8.77D-02 DE=-4.41D-01 OVMax= 1.16D-01

 Cycle   6  Pass 1  IDiag  1:
 RMSU=  2.03D-04    CP:  9.83D-01  2.63D-01  5.01D-01  4.72D-01  4.12D-01
 E= -1950.82749691485     Delta-E=       -0.063438429075 Rises=F Damp=F
 DIIS: error= 8.21D-03 at cycle   6 NSaved=   6.
 NSaved= 6 IEnMin= 6 EnMin= -1950.82749691485     IErMin= 6 ErrMin= 8.21D-03
 ErrMax= 8.21D-03  0.00D+00 EMaxC= 1.00D-01 BMatC= 3.21D-02 BMatP= 1.01D-01
 IDIUse=3 WtCom= 9.18D-01 WtEn= 8.21D-02
 Coeff-Com: -0.141D-01 0.647D-02 0.596D-01 0.130D+00 0.380D+00 0.438D+00
 Coeff-En:   0.000D+00 0.000D+00 0.000D+00 0.000D+00 0.261D+00 0.739D+00
 Coeff:     -0.130D-01 0.594D-02 0.547D-01 0.119D+00 0.370D+00 0.463D+00
 Gap=     0.080 Goal=   None    Shift=    0.000
 RMSDP=1.85D-04 MaxDP=3.21D-02 DE=-6.34D-02 OVMax= 4.96D-02

 Cycle   7  Pass 1  IDiag  1:
 RMSU=  9.15D-05    CP:  9.82D-01  2.78D-01  5.33D-01  4.34D-01  5.32D-01
                    CP:  4.93D-01
 E= -1950.84723676978     Delta-E=       -0.019739854924 Rises=F Damp=F
 DIIS: error= 1.70D-03 at cycle   7 NSaved=   7.
 NSaved= 7 IEnMin= 7 EnMin= -1950.84723676978     IErMin= 7 ErrMin= 1.70D-03
 ErrMax= 1.70D-03  0.00D+00 EMaxC= 1.00D-01 BMatC= 1.78D-03 BMatP= 3.21D-02
 IDIUse=3 WtCom= 9.83D-01 WtEn= 1.70D-02
 Coeff-Com: -0.127D-01-0.113D-02 0.723D-02 0.291D-01 0.159D+00 0.292D+00
 Coeff-Com:  0.527D+00
 Coeff-En:   0.000D+00 0.000D+00 0.000D+00 0.000D+00 0.000D+00 0.799D-01
 Coeff-En:   0.920D+00
 Coeff:     -0.125D-01-0.111D-02 0.711D-02 0.286D-01 0.156D+00 0.288D+00
 Coeff:      0.534D+00
 Gap=     0.079 Goal=   None    Shift=    0.000
 RMSDP=6.63D-05 MaxDP=6.21D-03 DE=-1.97D-02 OVMax= 1.01D-02

 Cycle   8  Pass 1  IDiag  1:
 RMSU=  3.56D-05    CP:  9.82D-01  2.74D-01  5.28D-01  4.42D-01  5.55D-01
                    CP:  5.81D-01  4.87D-01
 E= -1950.84840624040     Delta-E=       -0.001169470619 Rises=F Damp=F
 DIIS: error= 8.41D-04 at cycle   8 NSaved=   8.
 NSaved= 8 IEnMin= 8 EnMin= -1950.84840624040     IErMin= 8 ErrMin= 8.41D-04
 ErrMax= 8.41D-04  0.00D+00 EMaxC= 1.00D-01 BMatC= 2.67D-04 BMatP= 1.78D-03
 IDIUse=3 WtCom= 9.92D-01 WtEn= 8.41D-03
 Coeff-Com: -0.827D-02 0.497D-03-0.183D-03 0.947D-02 0.814D-01 0.166D+00
 Coeff-Com:  0.370D+00 0.381D+00
 Coeff-En:   0.000D+00 0.000D+00 0.000D+00 0.000D+00 0.000D+00 0.000D+00
 Coeff-En:   0.181D+00 0.819D+00
[...]
 000046,0.00000003,0.00000189,-0.00000225,-0.00000112,0.00000938,0.0000
 0466,-0.00000320,-0.00000214,0.00000100,0.00000050,-0.00002679,-0.0000
 8871,0.00003171,0.00002251,-0.00001110,0.00001089,0.00000074,-0.000013
 75,0.00000101,-0.00000263,-0.00000679,-0.00000046,-0.00000045,-0.00000
 576,0.00000206,0.00000696,-0.00000640,-0.00001087,-0.00000573,-0.00000
 398,0.00000214,0.00003164,-0.00001908,0.00000435,0.00001900,0.00001703
 ,0.00000453,0.00013271,-0.00002553,-0.00011462,0.00002149,-0.00000138,
 -0.00002588,0.00000018,0.00002219,0.00001420,-0.00000258,0.00000389,-0
 .00000533,-0.00000363,0.00000317,0.00000570,0.00000021,0.00000149,0.00
 000317,0.00000723,-0.00000294,0.00001341,0.00000161,-0.00000019,0.0000
 0124,-0.00000745,-0.00000956,-0.00001284,0.00001138,0.00000851,0.00001
 191,0.00002433,-0.00002190,0.00003132,-0.00000039,-0.00000804,-0.00002
 432,0.00004775,-0.00002004,0.00001853,-0.00000106,0.00001341,-0.000019
 67,0.00000268,-0.00000450,-0.00000205,0.00000390,0.00000819,0.00000432
 ,0.00000447,0.00000153,-0.00000193,0.00000573,0.00000418,0.00000018,0.
 00000260,0.00000007,-0.00000239,0.00000010,0.00000002,0.00000521,-0.00
 000019,-0.00000140,-0.00000392,0.00000007,0.00000320,0.00000043,-0.000
 00314,-0.00000694,0.00000505,0.00020185,-0.00014227,-0.00006413,-0.000
 00894,0.00005706,-0.00007373,0.00000977,-0.00000244,-0.00000301,-0.000
 02171,-0.00000485,0.00002948,-0.00000542,-0.00000241,-0.00001040,0.000
 00968,0.00002372,-0.00000838,0.00000188,0.00000011,-0.00000744,-0.0000
 2821,0.00000083,-0.00001805,-0.00000644,0.00000773,-0.00001108,-0.0000
 5255,-0.00005073,0.00000415,0.00001579,-0.00000569,0.00000191,0.001504
 76,-0.00456617,0.00139464,0.00063934,0.00027985,0.00010838,0.00017742,
 0.00053203,-0.00042007,-0.00210163,-0.00168020,0.00329485,-0.00001585,
 -0.00031309,-0.00011073,-0.00067027,-0.00319844,-0.00252309,0.00060393
 ,0.00190328,-0.00059889,-0.09646329,-0.09766271,-0.22054055,0.10485071
 ,0.10845169,0.23043741,-0.00085308,0.00013360,-0.00126994,0.00028616,0
 .00024459,0.00001274,0.00029724,-0.00041053,0.00031686,0.00922447,0.00
 371864,0.00851832,0.00080733,-0.00023718,-0.00226813,-0.00001502,-0.00
 047113,-0.00054816,-0.00138344,0.00061711,0.00428703,-0.00010056,0.000
 96009,0.00071622,-0.00001094,-0.00007439,-0.00003721,-0.00004283,0.000
 04063,-0.00002530,-0.00003028,-0.00000687,0.00001413,-0.00000735,-0.00
 000340,0.00000566,-0.00001096,-0.00001271,-0.00000101,-0.00000422,0.00
 000012,0.00000215,0.00001773,0.00000423,-0.00000140,-0.00000441,0.0000
 0409,0.00000088,-0.00002569,-0.00000349,0.00001275,0.00000816,-0.00000
 421,-0.00000038,0.00035387,0.00053321,-0.00030317,-0.00027342,0.000070
 30,-0.00006815,0.00001831,0.00010073,-0.00001109,0.00008099,0.00004375
 ,-0.00000716,0.00000908,0.00002323,0.00000703,-0.00001266,0.00002763,-
 0.00004823,0.00003717,0.00004630,-0.00002108,-0.00022910,0.00008571,0.
 00003931,-0.00007365,-0.00000705,0.00000289,-0.00119150,0.00026197,0.0
 0118650,0.00001329,0.00001547,0.00004394,0.00000404,-0.00004159,-0.000
 01543,0.00000441,-0.00001118,0.00002008,0.00000070,-0.00001183,-0.0000
 2525,-0.00000078,-0.00000388,-0.00000523,-0.00002566,0.00002920,-0.000
 04302,-0.00000400,-0.00000318,0.00000078,0.00003617,-0.00001296,-0.000
 00987,-0.00003301,-0.00002736,-0.00001720,-0.00004670,0.00006861,-0.00
 009421,-0.00001848,-0.00002172,0.00007953,-0.00017714,0.00007136,-0.00
 005255,0.00000928,-0.00003169,0.00006350,-0.00001566,0.00000999,0.0000
 0760,-0.00001290,-0.00002450,-0.00001200,-0.00000799,-0.00000721,0.000
 00325,-0.00001735,0.00000047,-0.00000747,-0.00000050,-0.00000042,0.000
 00131,0.00001300,0.00000915,0.00000102,0.00000304,0.00000267,0.0000000
 7,-0.00002289,0.00000665,-0.00002404,0.00000926,-0.00000887,-0.0000156
 0,-0.00223048,0.00315173,0.00215852,0.00021185,-0.00054390,0.00076700,
 -0.00017978,0.00010879,0.00007820,0.00049448,-0.00008259,-0.00007174,0
 .00007793,0.00001891,0.00010978,0.00006455,0.00003482,0.00020426,-0.00
 002413,0.00000648,0.00005304,0.00017037,-0.00007174,-0.00007259,-0.000
 00020,-0.00004804,0.00007720,0.00021766,0.00021001,0.00014064,-0.00008
 483,-0.00004470,-0.00004376,-0.13893310,-0.03592997,-0.09508878,-0.017
 58471,-0.01055843,-0.02844468,-0.00461950,0.00294321,-0.00158630,-0.00
 162245,0.00105280,0.00392527,0.00054588,-0.00024743,0.00033790,-0.0288
 3633,0.02197099,0.01082091,-0.00411697,0.00252432,-0.00279857,-0.16686
 442,0.10051010,0.07608389,0.00945921,-0.00938575,-0.00869698,0.6429008
 6,0.00069130,-0.00025264,0.00008987,-0.00017194,-0.00010942,0.00008156
 ,-0.00015339,-0.00002039,-0.00008123,-0.00212669,-0.00846292,-0.012962
 46,0.00023359,0.00001996,-0.00021928,0.00003614,0.00003274,0.00012038,
 0.00057965,-0.00045073,-0.00013980,-0.00020717,-0.00002394,-0.00021571
 ,-0.00000145,0.00007837,0.00001070,0.00006874,-0.00000432,0.00000761,0
 .00000785,-0.00000459,-0.00001013,0.00000680,0.00000034,-0.00000283,0.
 00000937,0.00000735,-0.00000101,0.00000224,-0.00000116,-0.00000093,-0.
 00000614,0.00000336,0.00000438,0.00000056,-0.00000101,0.00000053,-0.00
 000450,0.00000270,-0.00000500,-0.00000519,0.00000346,-0.00000063,-0.00
 021287,-0.00025773,0.00003843,0.00009829,-0.00006156,0.00007998,-0.000
 00193,-0.00003808,0.00003284,0.00004098,-0.00002000,-0.00004458,-0.000
 01403,0.00000238,-0.00001385,-0.00008195,0.00009786,0.00007797,-0.0000
 0626,-0.00001030,0.00001136,0.00029655,-0.00014485,0.00002390,-0.00028
 255,0.00009833,-0.00005120,0.00058786,0.00011396,-0.00098341,0.0000047
 8,0.00000923,-0.00003474,-0.00000357,0.00003707,0.00000697,-0.00000659
 ,0.00000759,-0.00000834,-0.00000445,0.00001073,0.00001105,-0.00000201,
 0.00000376,0.00000286,0.00001225,-0.00000964,0.00001714,0.00000022,0.0
 0000173,-0.00000179,-0.00002165,0.00000855,-0.00000513,0.00001860,0.00
 001309,0.00001719,0.00004428,-0.00007338,0.00006190,0.00002563,0.00002
 017,-0.00005131,0.00004215,-0.00001498,0.00003977,-0.00000024,0.000018
 46,-0.00001934,0.00000406,-0.00000367,-0.00000252,0.00000634,0.0000042
 4,0.00000616,0.00000343,0.00000105,-0.00000248,0.00000305,0.00000399,-
 0.00000069,0.00000147,-0.00000128,-0.00000191,0.00000073,0.00000439,0.
 00000250,0.00000036,-0.00000236,-0.00000320,-0.00000661,0.00001184,0.0
 0000475,-0.00000320,-0.00001070,-0.00000631,0.00166788,-0.00099273,-0.
 00027270,-0.00029055,0.00029435,-0.00059578,0.00008881,-0.00002094,-0.
 00003171,-0.00016465,-0.00009012,0.00028865,-0.00000118,-0.00001354,-0
 .00006677,0.00016680,0.00023761,-0.00004690,0.00005084,-0.00000071,-0.
 00003235,-0.00035687,0.00014681,-0.00027635,-0.00005830,0.00002829,-0.
 00003342,-0.00041881,-0.00017356,0.00021836,0.00027201,0.00006400,-0.0
 0014090,-0.01552867,-0.10829609,-0.08147726,-0.02865274,0.02235752,0.0
 0672034,0.00359924,0.00359986,-0.00146358,0.00087017,-0.02366238,-0.02
 328912,-0.00022780,-0.00075027,-0.00038878,0.04407408,0.00020169,0.016
 30721,0.00194320,0.00466562,-0.00207798,0.06795798,-0.16443768,-0.1106
 3886,0.00723918,-0.00495155,-0.00557678,-0.13862379,0.33438776,0.00077
 406,-0.00088852,-0.00050999,0.00012284,0.00024236,-0.00008888,-0.00029
 630,-0.00016724,-0.00012734,0.00261452,-0.01016626,-0.01223982,-0.0001
 3143,0.00003342,0.00018870,0.00008242,-0.00028165,-0.00031956,0.000240
 80,0.00009844,0.00005632,-0.00032441,0.00059287,0.00057801,-0.00002211
 ,-0.00009336,0.00004058,0.00002933,-0.00002710,-0.00000129,-0.00001212
 ,-0.00000528,0.00000487,0.00000130,0.00000100,-0.00000093,0.00000398,-
 0.00000882,-0.00000306,0.00000259,-0.00000140,-0.00000110,0.00000121,-
 0.00000645,-0.00001100,0.00000560,-0.00000305,-0.00000445,0.00004665,0
 .00001710,-0.00000460,0.00000226,-0.00000316,0.00000235,-0.00011117,-0
 .00009003,-0.00003118,0.00004972,0.00008798,-0.00000241,-0.00002302,0.
 00001114,0.00001595,-0.00005830,0.00008601,-0.00005453,-0.00004742,0.0
 0001418,-0.00004953,-0.00022725,0.00000270,0.00040126,0.00002280,-0.00
 000345,0.00001682,0.00004120,0.00002288,0.00013703,-0.00066723,0.00001
 926,-0.00014900,0.00002377,0.00166111,-0.00055990,-0.00001872,0.000018
 92,0.00000999,-0.00000123,0.00000336,0.00000160,-0.00000292,0.00000126
 ,-0.00000294,0.00000055,0.00000170,-0.00000533,0.00000194,-0.00000033,
 0.00000041,-0.00000355,-0.00000240,0.00000463,0.00000551,0.00000049,0.
 00000257,-0.00000283,-0.00001084,-0.00000384,0.00000668,0.00000850,0.0
 0000090,-0.00000836,0.00000925,-0.00000557,-0.00000849,-0.00000970,0.0
 0000398,-0.00000859,0.00001552,0.00001830,-0.00000666,-0.00000113,-0.0
 0000165,0.00000162,0.00000036,0.00000076,0.00000279,-0.00000120,0.0000
 0093,0.00000193,-0.00000015,-0.00000048,-0.00000261,0.00000050,-0.0000
 0125,0.00000260,0.00000090,-0.00000088,0.00001413,0.00000232,0.0000047
 0,-0.00000164,-0.00000058,0.00000043,-0.00002405,-0.00000471,-0.000006
 56,0.00000212,-0.00002019,0.00000800,0.00050834,-0.00149244,-0.0006065
 2,-0.00009349,0.00028491,-0.00046442,0.00006327,-0.00003450,-0.0000328
 7,-0.00014977,-0.00003263,0.00004401,-0.00003299,0.00000829,-0.0000371
 8,0.00002793,-0.00002759,-0.00002492,0.00002796,-0.00000060,-0.0000060
 5,-0.00011714,0.00011437,0.00003285,-0.00000327,0.00000523,-0.00001033
 ,-0.00026368,-0.00015650,0.00014828,0.00017381,0.00011832,-0.00007997,
 -0.06616730,-0.09250404,-0.21822229,-0.05484622,0.01683058,0.00090843,
 -0.00127381,-0.00216701,0.00283884,0.00397340,-0.02415566,-0.03747708,
 0.00036247,-0.00028130,-0.00103933,0.04217589,0.00432797,0.03533058,-0
 .00361006,-0.00179839,0.00259897,0.03114087,-0.09221342,-0.16589751,0.
 01376210,-0.01497432,-0.01029848,0.09544306,0.21232484,0.46653370,-0.0
 0044617,-0.00040177,-0.00011507,0.00002090,0.00008032,-0.00005650,-0.0
 0010031,0.00011973,-0.00003887,-0.00036897,-0.00019370,0.00081648,-0.0
 0084245,0.00092867,-0.00013421,-0.00005825,-0.00001311,-0.00002541,-0.
 00069338,0.00108880,0.00018101,0.00026310,0.00009853,0.00000170,0.0000
 0289,-0.00002328,0.00000513,0.00000835,0.00000667,0.00000399,-0.000005
 66,-0.00000835,0.00000316,-0.00000217,0.00000187,0.00000036,0.00000007
 ,-0.00000261,-0.00000281,0.00000186,-0.00000147,-0.00000092,0.00000373
 ,-0.00000164,-0.00000119,0.00000139,-0.00000212,-0.00000059,0.00000269
 ,0.00000274,-0.00000415,-0.00000017,-0.00000211,0.00000032,-0.00002363
 ,-0.00015905,0.00000751,0.00000240,0.00000443,0.00002892,0.00000149,-0
 .00000632,0.00000119,-0.00000022,-0.00002105,-0.00000110,-0.00000608,-
 0.00000445,-0.00000129,-0.00000313,-0.00001061,0.00001679,-0.00000702,
 -0.00000180,-0.00000503,-0.00002555,0.00002154,0.00001721,0.00000070,0
 .00003553,-0.00001359,0.00021064,-0.00010115,-0.00004103,0.00001982,0.
 00000107,-0.00000391,0.00000667,-0.00000008,0.00002186,-0.00000069,-0.
 00000153,-0.00000197,0.00000009,-0.00000807,-0.00000517,0.00000303,-0.
 00000170,0.00000237,-0.00000428,0.00000234,0.00000143,0.00000483,-0.00
 000050,0.00000387,0.00000280,-0.00001524,-0.00001832,0.00000114,0.0000
 0408,0.00000040,-0.00000867,0.00001319,0.00000349,-0.00002519,-0.00002
 355,0.00001447,0.00003932,-0.00002078,-0.00000671,-0.00000179,0.000005
 41,-0.00001658,0.00000076,-0.00000271,0.00000021,0.00000270,0.00000907
 ,0.00000128,0.00000317,0.00000200,-0.00000066,0.00000582,0.00000328,0.
 00000155,0.00000215,0.00000145,-0.00000114,0.00000071,-0.00000766,0.00
 000600,-0.00000026,0.00000116,-0.00000314,0.00000929,0.00000320,0.0000
 0210,0.00000584,-0.00001102,0.00000729,0.00005592,0.00019479,-0.000062
 48,0.00001423,-0.00002050,0.00007504,-0.00000382,-0.00000186,-0.000006
 69,0.00003010,0.00001143,0.00002418,0.00000610,-0.00000396,0.00000606,
 0.00001208,0.00002566,0.00000338,-0.00000198,0.00000131,0.00000225,-0.
 00001015,-0.00001679,-0.00002375,-0.00000176,0.00000027,0.00000305,0.0
 0003083,-0.00004657,0.00002126,-0.00000127,0.00000592,-0.00000264,-0.0
 0864149,0.00220875,-0.00226486,0.00145001,-0.00002053,-0.00271215,-0.0
 0031788,0.00038475,-0.00006322,0.00051709,-0.00025905,0.00036429,-0.00
 019323,-0.00027132,0.00019764,0.00117188,0.00319633,0.00126427,-0.0005
 6861,0.00000431,-0.00029583,-0.01033080,0.00183440,-0.00522360,0.00042
 695,-0.00105061,0.00076843,-0.29562743,0.05689026,-0.06319588,0.313978
 92,-0.00060268,0.00055371,0.00085681,0.00004527,-0.00016593,-0.0001249
 6,0.00035250,-0.00001872,-0.00006432,-0.00168181,-0.00171718,0.0002898
 2,0.00018416,-0.00068052,0.00134624,-0.00004745,0.00019066,0.00021263,
 0.00142868,-0.00063158,-0.00201251,0.00020485,-0.00046550,-0.00015062,
 0.00000360,-0.00000578,0.00001744,-0.00007228,-0.00001434,-0.00001602,
 0.00000917,0.00003069,0.00000491,-0.00000199,-0.00000328,-0.00000077,-
 0.00000920,0.00000004,0.00000423,-0.00000374,0.00000394,0.00000311,-0.
 00000213,-0.00000092,-0.00000397,-0.00000213,0.00000363,0.00000062,0.0
 0000126,-0.00000765,0.00000762,0.00000054,0.00000180,0.00000329,-0.000
 03282,-0.00012808,0.00005490,0.00006223,-0.00004793,0.00002175,-0.0000
 0653,-0.00001134,0.00001104,0.00001252,-0.00001798,-0.00001714,0.00000
 226,0.00000242,-0.00000191,-0.00000098,0.00001855,0.00001438,0.0000017
 8,0.00000066,-0.00000157,-0.00006158,-0.00000704,0.00001794,0.00001044
 ,0.00003716,0.00000388,0.00029021,-0.00015631,-0.00033449,-0.00006839,
 0.00001021,0.00006760,-0.00000564,-0.00006051,-0.00002876,0.00000483,-
 0.00000832,0.00000626,0.00001345,-0.00000637,-0.00001168,-0.00000032,-
 0.00000289,-0.00000643,-0.00001335,0.00000810,-0.00001720,-0.00000119,
 -0.00000157,-0.00000083,0.00001860,0.00000071,0.00002455,-0.00002030,-
 0.00001555,-0.00002212,-0.00005993,0.00008575,-0.00007447,-0.00003312,
 -0.00001353,0.00006306,-0.00007227,0.00003344,-0.00003918,-0.00000146,
 -0.00002419,0.00002993,-0.00000298,0.00000740,0.00000314,-0.00000573,-
 0.00001068,-0.00000596,-0.00000686,-0.00000295,0.00000303,-0.00000903,
 -0.00000823,0.00000386,-0.00000486,-0.00000048,0.00000371,-0.00000901,
 -0.00000622,-0.00001328,0.00000008,0.00000185,0.00000694,0.00000887,-0
 .00001074,0.00002015,0.00001099,0.00001982,-0.00001197,0.00000763,0.00
 023270,0.00006691,-0.00000686,-0.00006321,0.00009819,-0.00000362,-0.00
 000047,-0.00000240,0.00002766,-0.00000054,0.00002397,0.00000940,-0.000
 00120,0.00001273,0.00001777,0.00002595,0.00001806,-0.00000092,-0.00000
 126,0.00000415,-0.00001109,-0.00002406,-0.00002609,-0.00000024,-0.0000
 0425,0.00001444,0.00010087,0.00005732,0.00004524,-0.00003998,-0.000005
 70,-0.00001806,-0.01247086,0.00518968,-0.00205845,0.00055219,0.0025552
 9,-0.00488636,-0.00067453,0.00050176,-0.00040416,-0.00030797,-0.000827
 93,-0.00024049,-0.00028623,-0.00064729,0.00060055,0.00284528,0.0019956
 5,-0.00531206,0.00093768,-0.00006265,0.00021585,0.01786700,-0.00049771
 ,0.00494157,-0.00124712,-0.00181429,0.00194751,0.05731203,-0.05323100,
 0.00466736,-0.06445463,0.04986495,-0.00019157,0.00037009,0.00072654,-0
 .00009332,-0.00033108,0.00011713,0.00050576,-0.00008726,0.00010342,-0.
 00127044,0.00146398,-0.00079613,0.00014527,0.00006242,-0.00091246,-0.0
 0000586,0.00025884,0.00049091,0.00034018,-0.00042978,0.00133359,-0.000
 09781,-0.00040184,-0.00083194,0.00000143,0.00011695,-0.00003983,-0.000
 05961,0.00003011,-0.00001361,0.00001801,0.00002614,-0.00000550,-0.0000
 0349,-0.00000495,-0.00000415,-0.00000790,0.00001092,0.00000943,-0.0000
 0764,0.00000434,0.00000348,-0.00000536,0.00001065,0.00001258,-0.000009
 36,0.00000853,0.00000663,-0.00006075,-0.00002000,0.00001509,-0.0000012
 9,0.00000620,-0.00000488,0.00002691,0.00011554,-0.00002557,0.00003882,
 -0.00001691,-0.00001829,0.00000038,0.00000420,0.00000322,0.00000686,0.
 00001159,-0.00000360,0.00001273,0.00000490,-0.00000416,0.00006150,-0.0
 0000361,-0.00003466,0.00001316,0.00001559,-0.00000564,-0.00009335,0.00
 009786,-0.00000268,0.00004278,0.00002984,-0.00002494,0.00006053,0.0000
 3246,0.00011912,-0.00005289,0.00002264,0.00004591,-0.00000543,-0.00003
 424,-0.00004456,-0.00000136,-0.00000652,0.00001518,0.00000159,-0.00000
 005,-0.00000701,-0.00000524,0.00000078,-0.00000774,-0.00001215,0.00002
 186,-0.00002822,-0.00001046,-0.00000085,-0.00000629,0.00001414,0.00001
 880,0.00000764,-0.00002167,-0.00002501,-0.00000708,0.00000632,-0.00000
 289,-0.00001361,0.00001604,0.00001684,0.00002576,-0.00008170,0.0000246
 5,-0.00001098,0.00000756,-0.00001786,0.00003864,-0.00000619,0.00000639
 ,0.00000245,-0.00000760,-0.00001822,-0.00000417,-0.00000871,-0.0000050
 1,0.00000176,-0.00001056,-0.00000495,-0.00000328,-0.00000628,-0.000003
 92,0.00000276,-0.00000825,0.00001647,-0.00002031,0.00000240,-0.0000007
 5,0.00000506,-0.00001557,0.00000628,0.00000804,0.00000730,0.00001206,-
 0.00003510,0.00021500,-0.00002600,-0.00010865,0.00008890,0.00000614,0.
 00007315,-0.00000106,0.00000259,-0.00000827,-0.00001245,0.00003298,0.0
 0001083,-0.00000444,0.00000690,0.00000843,-0.00000340,-0.00002013,0.00
 000299,0.00000061,0.00000157,0.00000250,0.00001051,0.00000124,0.000014
 91,-0.00000432,0.00000139,0.00000360,0.00000509,-0.00007612,0.00001654
 ,-0.00002298,0.00002902,0.00002013,-0.02203043,0.00572467,-0.00307991,
 -0.00236203,-0.00514105,-0.00198238,-0.00142944,0.00018979,0.00006117,
 0.00028729,-0.00024044,-0.00097236,0.00019824,0.00061726,-0.00025196,0
 .00060706,-0.00515120,0.00036174,0.00093039,-0.00025733,0.00026849,0.0
 1710982,-0.00398981,0.00725922,0.00058683,0.00205762,-0.00057680,-0.06
 380758,0.00466981,-0.06155067,0.07047052,0.00014887,0.06024936\\0.0000
 0071,0.00000096,-0.00000419,-0.00000071,-0.00003707,-0.00000142,-0.000
 01441,-0.00001006,0.00000970,0.00001352,-0.00001078,-0.00000975,0.0000
 0066,-0.00000079,0.00001222,-0.00000013,-0.00000547,-0.00000475,0.0000
 0148,0.00000474,-0.00001274,-0.00000260,0.00001338,0.00000990,0.000000
 30,0.00002614,0.00000402,0.00000419,0.00000115,-0.00000165,0.00000347,
 -0.00000344,0.00000105,-0.00000041,-0.00000037,0.00000081,-0.00000269,
 0.00000236,0.00000111,0.00000041,-0.00000042,0.00000034,-0.00000105,0.
 ,0.00000116,0.00000125,0.00000022,0.00000005,-0.00000569,-0.00000690,-
 0.00000117,0.00000021,0.00000076,-0.00000018,0.00000036,0.00002688,-0.
 00000178,0.00000576,-0.00000686,0.00000027,-0.00000017,0.00000084,0.00
 000006,0.00000090,-0.00000002,-0.00000105,-0.00000121,0.00000030,0.,0.
 00000261,0.00000214,-0.00000114,-0.00000048,-0.00000030,-0.00000052,-0
 .00000252,-0.00000241,0.00000004,-0.00000001,0.00000102,-0.00000130,-0
 .00000438,0.00000050,0.00000135,0.00000039,0.00000156,-0.00000297,-0.0
 0000066,-0.00000046,0.00000347,0.00000075,-0.00000027,-0.00000095,-0.0
 0000044,-0.00000138,-0.00000226,-0.00000043,0.00000013,0.00000069,-0.0
 0000073,-0.00000007,0.00000067,-0.00000073,0.00000009,0.00000042,-0.00
 000149,0.00000041,-0.00000040,-0.00000011,0.00000002,0.00000021,0.0000
 0044,0.00000019,0.00000248,-0.00000033,0.00000038,-0.00000027,0.000002
 59,0.00000110,-0.00000586,0.00000257,0.00000447,-0.00000157,0.00000024
 ,-0.00000082,0.00000087,-0.00000091,-0.00000416,0.00000401,0.00000026,
 0.00000003,0.00000066,-0.00000196,0.00000226,-0.00000194,0.00000030,-0
 .00000016,0.00000063,0.00000312,0.00000139,-0.00000044,-0.00000053,-0.
 00000091,0.00000027,0.00000177,-0.00000199,0.00000546,0.00000090,0.000
 00113,-0.00000183,0.00000055,0.00000075,0.00000187,0.00000086,-0.00000
 042,-0.00000356,-0.00000067,0.00000005,0.00000068,0.00000024,-0.000001
 15,0.00000211,0.00000033,0.00000015,-0.00000078,0.00000084,0.,-0.00000
 081,0.00000076,0.00000013,-0.00000051,0.00000114,0.00000071,0.00000051
 ,0.00000009,-0.00000005,-0.00000031,-0.00000060,-0.00000021,-0.0000030
 6,0.00000022,0.00000032,0.00000028,-0.00000193,0.00000223,0.00000434,-
 0.00000417,0.00000343,0.00000154,-0.00000054,-0.00000164,0.00000075,0.
 00000130,-0.00000373,-0.00000399,-0.00000017,-0.00000008,-0.00000061,0
 .00000204,0.00000256,0.00000163,-0.00000032,-0.00000042,-0.00000043,-0
 .00000276,0.00000143,0.00000028,0.00000062,-0.00000086,-0.00000038,-0.
 00000258,-0.00000291,-0.00000355,0.00000034,0.00000023,0.00000221\\\@


 OLD AGE AND TREACHERY WILL ALWAYS PREVAIL OVER YOUTH AND SKILL.
 Job cpu time:       0 days 16 hours  8 minutes 23.4 seconds.
 File lengths (MBytes):  RWF=   4665 Int=      0 D2E=      0 Chk=     53 Scr=      1
 Normal termination of Gaussian 09 at Sat Apr  4 02:52:29 2020.
