 Entering Gaussian System, Link 0=g09
 Input=ru_znphos_co2_trans_benzene.com
 Output=ru_znphos_co2_trans_benzene.log
 Initial command:
 /home/programs/G09_D/g09/l1.exe "/state/partition1/stuart_2020-04-11-1414_20276/Gau-1473.inp" -scrdir="/state/partition1/stuart_2020-04-11-1414_20276/"
 Entering Link 1 = /home/programs/G09_D/g09/l1.exe PID=      1475.
  
 Copyright (c) 1988,1990,1992,1993,1995,1998,2003,2009,2013,
            Gaussian, Inc.  All Rights Reserved.
  
 This is part of the Gaussian(R) 09 program.  It is based on
 the Gaussian(R) 03 system (copyright 2003, Gaussian, Inc.),
 the Gaussian(R) 98 system (copyright 1998, Gaussian, Inc.),
 the Gaussian(R) 94 system (copyright 1995, Gaussian, Inc.),
 the Gaussian 92(TM) system (copyright 1992, Gaussian, Inc.),
 the Gaussian 90(TM) system (copyright 1990, Gaussian, Inc.),
 the Gaussian 88(TM) system (copyright 1988, Gaussian, Inc.),
 the Gaussian 86(TM) system (copyright 1986, Carnegie Mellon
 University), and the Gaussian 82(TM) system (copyright 1983,
 Carnegie Mellon University). Gaussian is a federally registered
 trademark of Gaussian, Inc.
  
 This software contains proprietary and confidential information,
 including trade secrets, belonging to Gaussian, Inc.
  
 This software is provided under written license and may be
 used, copied, transmitted, or stored only in accord with that
 written license.
  
 The following legend is applicable only to US Government
 contracts under FAR:
  
                    RESTRICTED RIGHTS LEGEND
  
 Use, reproduction and disclosure by the US Government is
 subject to restrictions as set forth in subparagraphs (a)
 and (c) of the Commercial Computer Software - Restricted
 Rights clause in FAR 52.227-19.
  
 Gaussian, Inc.
 340 Quinnipiac St., Bldg. 40, Wallingford CT 06492
  
  
 ---------------------------------------------------------------
 Warning -- This program may not be used in any manner that
 competes with the business of Gaussian, Inc. or will provide
 assistance to any competitor of Gaussian, Inc.  The licensee
 of this program is prohibited from giving any competitor of
 Gaussian, Inc. access to this program.  By using this program,
 the user acknowledges that Gaussian, Inc. is engaged in the
 business of creating and licensing software in the field of
 computational chemistry and represents and warrants to the
 licensee that it is not a competitor of Gaussian, Inc. and that
 it will not use this program in any manner prohibited above.
 ---------------------------------------------------------------
  

 Cite this work as:
 Gaussian 09, Revision D.01,
 M. J. Frisch, G. W. Trucks, H. B. Schlegel, G. E. Scuseria, 
 M. A. Robb, J. R. Cheeseman, G. Scalmani, V. Barone, B. Mennucci, 
 G. A. Petersson, H. Nakatsuji, M. Caricato, X. Li, H. P. Hratchian, 
 A. F. Izmaylov, J. Bloino, G. Zheng, J. L. Sonnenberg, M. Hada, 
 M. Ehara, K. Toyota, R. Fukuda, J. Hasegawa, M. Ishida, T. Nakajima, 
 Y. Honda, O. Kitao, H. Nakai, T. Vreven, J. A. Montgomery, Jr., 
 J. E. Peralta, F. Ogliaro, M. Bearpark, J. J. Heyd, E. Brothers, 
 K. N. Kudin, V. N. Staroverov, T. Keith, R. Kobayashi, J. Normand, 
 K. Raghavachari, A. Rendell, J. C. Burant, S. S. Iyengar, J. Tomasi, 
 M. Cossi, N. Rega, J. M. Millam, M. Klene, J. E. Knox, J. B. Cross, 
 V. Bakken, C. Adamo, J. Jaramillo, R. Gomperts, R. E. Stratmann, 
 O. Yazyev, A. J. Austin, R. Cammi, C. Pomelli, J. W. Ochterski, 
 R. L. Martin, K. Morokuma, V. G. Zakrzewski, G. A. Voth, 
 P. Salvador, J. J. Dannenberg, S. Dapprich, A. D. Daniels, 
 O. Farkas, J. B. Foresman, J. V. Ortiz, J. Cioslowski, 
 and D. J. Fox, Gaussian, Inc., Wallingford CT, 2013.
 
 ******************************************
 Gaussian 09:  EM64L-G09RevD.01 24-Apr-2013
                11-Apr-2020 
 ******************************************
 %nproc=8
 Will use up to    8 processors via shared memory.
 %mem=14GB
 ---------------------------------------------------------------------
 #p bp86 gen pseudo=read int=grid=ultrafine scrf=(pcm,solvent=benzene)
 ---------------------------------------------------------------------
 1/38=1/1;
 2/12=2,17=6,18=5,40=1/2;
 3/5=7,11=2,16=1,17=8,25=1,30=1,70=2201,72=12,74=404,75=-5/1,2,3;
 4//1;
 5/5=2,38=5,53=12/2;
 6/7=2,8=2,9=2,10=2,28=1/1;
 99/5=1,9=1/99;
 Leave Link    1 at Sat Apr 11 14:14:33 2020, MaxMem=  1879048192 cpu:         0.4
 (Enter /home/programs/G09_D/g09/l101.exe)
 -------------------------------
 Ru (PPh3)3 H4 from high temp MD
 -------------------------------
 Symbolic Z-matrix:
 Charge =  0 Multiplicity = 1
 Ru                    0.       -0.55031   0.00025 
 Zn                    0.00002   2.06958  -0.00069 
 P                     2.36563  -0.30195  -0.05785 
 P                    -2.36563  -0.30188   0.05811 
 O                     0.06442   0.31185   2.958 
 O                    -0.06438   0.30948  -2.95822 
 C                     0.04001  -0.11285   1.86083 
 C                    -0.03999  -0.11423  -1.86066 
 C                     1.87202   2.4575   -0.54222 
 C                     2.8359    1.41362  -0.64627 
 C                     4.13363   1.65024  -1.14923 
 H                     4.852     0.82787  -1.23958 
 C                     4.50711   2.9413   -1.55247 
 H                     5.51202   3.11978  -1.9503 
 C                     3.58495   3.99413  -1.44729 
 H                     3.8685    5.00502  -1.76266 
 C                     2.29421   3.74704  -0.94925 
 H                     1.58997   4.58624  -0.88989 
 C                    -1.87201   2.45792   0.54045 
 C                    -2.2942    3.74777   0.9465 
 H                    -1.58994   4.58692   0.88659 
 C                    -3.58498   3.99525   1.44425 
 H                    -3.86854   5.00638   1.75885 
 C                    -4.50718   2.94252   1.55012 
 H                    -5.51212   3.12132   1.94773 
 C                    -4.13369   1.65116   1.14786 
 H                    -4.85208   0.82888   1.23876 
 C                    -2.83591   1.41414   0.6452 
 C                     3.22307  -0.47741   1.59172 
 C                     3.9984    0.55023   2.16185 
 H                     4.13369   1.49343   1.62412 
 C                     4.59516   0.36756   3.42208 
 H                     5.19089   1.17577   3.85948 
 C                     4.42823  -0.8396    4.1165 
 H                     4.89367  -0.97836   5.09793 
 C                     3.6556   -1.86943   3.55127 
 H                     3.51735  -2.81302   4.08974 
 C                     3.05129  -1.6875    2.29978 
 H                     2.43778  -2.48734   1.86864 
 C                     3.35815  -1.49177  -1.10974 
 C                     4.69763  -1.81624  -0.80004 
 H                     5.17279  -1.38458   0.08666 
 C                     5.42133  -2.70128  -1.61488 
 H                     6.45935  -2.94317  -1.36268 
 C                     4.81677  -3.2779   -2.7436 
 H                     5.38157  -3.97115  -3.3757 
 C                     3.48254  -2.9691   -3.05264 
 H                     3.0002   -3.42122  -3.92566 
 C                     2.75593  -2.08551  -2.23909 
 H                     1.71262  -1.86046  -2.47862 
 C                    -3.22299  -0.4786   -1.59136 
 C                    -3.99828   0.54862  -2.16232 
 H                    -4.1336    1.49222  -1.62531 
 C                    -4.59496   0.365    -3.42245 
 H                    -5.19065   1.17288  -3.8605 
 C                    -4.42798  -0.84269  -4.11595 
 H                    -4.89336  -0.98219  -5.0973 
 C                    -3.6554   -1.8721   -3.54989 
 H                    -3.51712  -2.81609  -4.08764 
 C                    -3.05117  -1.68922  -2.2985 
 H                    -2.43769  -2.48874  -1.86672 
 C                    -3.35824  -1.49089   1.11085 
 C                    -4.69761  -1.8158    0.80115 
 H                    -5.17262  -1.38499  -0.08605 
 C                    -5.42138  -2.7002    1.61661 
 H                    -6.45931  -2.94245   1.3644 
 C                    -4.817    -3.27575   2.74598 
 H                    -5.38185  -3.96851   3.37857 
 C                    -3.48286  -2.96653   3.05502 
 H                    -3.00067  -3.41782   3.92855 
 C                    -2.75618  -2.08358   2.24084 
 H                    -1.71295  -1.85821   2.4804 
 
 NAtoms=     72 NQM=       72 NQMF=       0 NMMI=      0 NMMIF=      0
                NMic=       0 NMicF=      0.
                    Isotopes and Nuclear Properties:
 (Nuclear quadrupole moments (NQMom) in fm**2, nuclear magnetic moments (NMagM)
  in nuclear magnetons)

  Atom         1           2           3           4           5           6           7           8           9          10
 IAtWgt=         102          64          31          31          16          16          12          12          12          12
 AtmWgt= 101.9037000  63.9291454  30.9737634  30.9737634  15.9949146  15.9949146  12.0000000  12.0000000  12.0000000  12.0000000
 NucSpn=           0           0           1           1           0           0           0           0           0           0
 AtZEff=   0.0000000   0.0000000   0.0000000   0.0000000   0.0000000   0.0000000   0.0000000   0.0000000   0.0000000   0.0000000
 NQMom=    0.0000000   0.0000000   0.0000000   0.0000000   0.0000000   0.0000000   0.0000000   0.0000000   0.0000000   0.0000000
 NMagM=    0.0000000   0.0000000   1.1316000   1.1316000   0.0000000   0.0000000   0.0000000   0.0000000   0.0000000   0.0000000
 AtZNuc=  44.0000000  30.0000000  15.0000000  15.0000000   8.0000000   8.0000000   6.0000000   6.0000000   6.0000000   6.0000000

  Atom        11          12          13          14          15          16          17          18          19          20
 IAtWgt=          12           1          12           1          12           1          12           1          12          12
 AtmWgt=  12.0000000   1.0078250  12.0000000   1.0078250  12.0000000   1.0078250  12.0000000   1.0078250  12.0000000  12.0000000
 NucSpn=           0           1           0           1           0           1           0           1           0           0
 AtZEff=   0.0000000   0.0000000   0.0000000   0.0000000   0.0000000   0.0000000   0.0000000   0.0000000   0.0000000   0.0000000
 NQMom=    0.0000000   0.0000000   0.0000000   0.0000000   0.0000000   0.0000000   0.0000000   0.0000000   0.0000000   0.0000000
 NMagM=    0.0000000   2.7928460   0.0000000   2.7928460   0.0000000   2.7928460   0.0000000   2.7928460   0.0000000   0.0000000
 AtZNuc=   6.0000000   1.0000000   6.0000000   1.0000000   6.0000000   1.0000000   6.0000000   1.0000000   6.0000000   6.0000000

  Atom        21          22          23          24          25          26          27          28          29          30
 IAtWgt=           1          12           1          12           1          12           1          12          12          12
 AtmWgt=   1.0078250  12.0000000   1.0078250  12.0000000   1.0078250  12.0000000   1.0078250  12.0000000  12.0000000  12.0000000
 NucSpn=           1           0           1           0           1           0           1           0           0           0
 AtZEff=   0.0000000   0.0000000   0.0000000   0.0000000   0.0000000   0.0000000   0.0000000   0.0000000   0.0000000   0.0000000
 NQMom=    0.0000000   0.0000000   0.0000000   0.0000000   0.0000000   0.0000000   0.0000000   0.0000000   0.0000000   0.0000000
 NMagM=    2.7928460   0.0000000   2.7928460   0.0000000   2.7928460   0.0000000   2.7928460   0.0000000   0.0000000   0.0000000
 AtZNuc=   1.0000000   6.0000000   1.0000000   6.0000000   1.0000000   6.0000000   1.0000000   6.0000000   6.0000000   6.0000000

  Atom        31          32          33          34          35          36          37          38          39          40
 IAtWgt=           1          12           1          12           1          12           1          12           1          12
 AtmWgt=   1.0078250  12.0000000   1.0078250  12.0000000   1.0078250  12.0000000   1.0078250  12.0000000   1.0078250  12.0000000
 NucSpn=           1           0           1           0           1           0           1           0           1           0
 AtZEff=   0.0000000   0.0000000   0.0000000   0.0000000   0.0000000   0.0000000   0.0000000   0.0000000   0.0000000   0.0000000
 NQMom=    0.0000000   0.0000000   0.0000000   0.0000000   0.0000000   0.0000000   0.0000000   0.0000000   0.0000000   0.0000000
 NMagM=    2.7928460   0.0000000   2.7928460   0.0000000   2.7928460   0.0000000   2.7928460   0.0000000   2.7928460   0.0000000
 AtZNuc=   1.0000000   6.0000000   1.0000000   6.0000000   1.0000000   6.0000000   1.0000000   6.0000000   1.0000000   6.0000000

  Atom        41          42          43          44          45          46          47          48          49          50
 IAtWgt=          12           1          12           1          12           1          12           1          12           1
 AtmWgt=  12.0000000   1.0078250  12.0000000   1.0078250  12.0000000   1.0078250  12.0000000   1.0078250  12.0000000   1.0078250
 NucSpn=           0           1           0           1           0           1           0           1           0           1
 AtZEff=   0.0000000   0.0000000   0.0000000   0.0000000   0.0000000   0.0000000   0.0000000   0.0000000   0.0000000   0.0000000
 NQMom=    0.0000000   0.0000000   0.0000000   0.0000000   0.0000000   0.0000000   0.0000000   0.0000000   0.0000000   0.0000000
 NMagM=    0.0000000   2.7928460   0.0000000   2.7928460   0.0000000   2.7928460   0.0000000   2.7928460   0.0000000   2.7928460
 AtZNuc=   6.0000000   1.0000000   6.0000000   1.0000000   6.0000000   1.0000000   6.0000000   1.0000000   6.0000000   1.0000000

  Atom        51          52          53          54          55          56          57          58          59          60
 IAtWgt=          12          12           1          12           1          12           1          12           1          12
 AtmWgt=  12.0000000  12.0000000   1.0078250  12.0000000   1.0078250  12.0000000   1.0078250  12.0000000   1.0078250  12.0000000
 NucSpn=           0           0           1           0           1           0           1           0           1           0
 AtZEff=   0.0000000   0.0000000   0.0000000   0.0000000   0.0000000   0.0000000   0.0000000   0.0000000   0.0000000   0.0000000
 NQMom=    0.0000000   0.0000000   0.0000000   0.0000000   0.0000000   0.0000000   0.0000000   0.0000000   0.0000000   0.0000000
 NMagM=    0.0000000   0.0000000   2.7928460   0.0000000   2.7928460   0.0000000   2.7928460   0.0000000   2.7928460   0.0000000
 AtZNuc=   6.0000000   6.0000000   1.0000000   6.0000000   1.0000000   6.0000000   1.0000000   6.0000000   1.0000000   6.0000000

  Atom        61          62          63          64          65          66          67          68          69          70
 IAtWgt=           1          12          12           1          12           1          12           1          12           1
 AtmWgt=   1.0078250  12.0000000  12.0000000   1.0078250  12.0000000   1.0078250  12.0000000   1.0078250  12.0000000   1.0078250
 NucSpn=           1           0           0           1           0           1           0           1           0           1
 AtZEff=   0.0000000   0.0000000   0.0000000   0.0000000   0.0000000   0.0000000   0.0000000   0.0000000   0.0000000   0.0000000
 NQMom=    0.0000000   0.0000000   0.0000000   0.0000000   0.0000000   0.0000000   0.0000000   0.0000000   0.0000000   0.0000000
 NMagM=    2.7928460   0.0000000   0.0000000   2.7928460   0.0000000   2.7928460   0.0000000   2.7928460   0.0000000   2.7928460
 AtZNuc=   1.0000000   6.0000000   6.0000000   1.0000000   6.0000000   1.0000000   6.0000000   1.0000000   6.0000000   1.0000000

  Atom        71          72
 IAtWgt=          12           1
 AtmWgt=  12.0000000   1.0078250
 NucSpn=           0           1
 AtZEff=   0.0000000   0.0000000
 NQMom=    0.0000000   0.0000000
 NMagM=    0.0000000   2.7928460
 AtZNuc=   6.0000000   1.0000000
 Leave Link  101 at Sat Apr 11 14:14:33 2020, MaxMem=  1879048192 cpu:         1.0
 (Enter /home/programs/G09_D/g09/l202.exe)
 Stoichiometry    C38H28O2P2RuZn
 Framework group  C1[X(C38H28O2P2RuZn)]
 Deg. of freedom   210
 Full point group                 C1      NOp   1
 Largest Abelian subgroup         C1      NOp   1
 Largest concise Abelian subgroup C1      NOp   1
                         Standard orientation:                         
 ---------------------------------------------------------------------
 Center     Atomic      Atomic             Coordinates (Angstroms)
 Number     Number       Type             X           Y           Z
 ---------------------------------------------------------------------
      1         44           0       -0.000001   -0.550311    0.000249
      2         30           0        0.000020    2.069579   -0.000691
      3         15           0        2.365629   -0.301952   -0.057851
      4         15           0       -2.365631   -0.301880    0.058109
      5          8           0        0.064419    0.311849    2.957999
      6          8           0       -0.064381    0.309479   -2.958221
      7          6           0        0.040009   -0.112851    1.860829
      8          6           0       -0.039991   -0.114231   -1.860661
      9          6           0        1.872020    2.457499   -0.542221
     10          6           0        2.835900    1.413618   -0.646271
     11          6           0        4.133630    1.650238   -1.149231
     12          1           0        4.851999    0.827868   -1.239581
     13          6           0        4.507110    2.941298   -1.552471
     14          1           0        5.512020    3.119777   -1.950301
     15          6           0        3.584950    3.994128   -1.447291
     16          1           0        3.868501    5.005018   -1.762661
     17          6           0        2.294210    3.747038   -0.949251
     18          1           0        1.589971    4.586239   -0.889891
     19          6           0       -1.872010    2.457920    0.540449
     20          6           0       -2.294200    3.747770    0.946499
     21          1           0       -1.589939    4.586920    0.886589
     22          6           0       -3.584980    3.995250    1.444249
     23          1           0       -3.868539    5.006381    1.758849
     24          6           0       -4.507180    2.942521    1.550119
     25          1           0       -5.512120    3.121321    1.947729
     26          6           0       -4.133690    1.651161    1.147859
     27          1           0       -4.852081    0.828881    1.238759
     28          6           0       -2.835910    1.414140    0.645199
     29          6           0        3.223069   -0.477412    1.591719
     30          6           0        3.998399    0.550228    2.161849
     31          1           0        4.133690    1.493428    1.624119
     32          6           0        4.595159    0.367558    3.422079
     33          1           0        5.190889    1.175767    3.859479
     34          6           0        4.428229   -0.839602    4.116499
     35          1           0        4.893669   -0.978362    5.097929
     36          6           0        3.655598   -1.869432    3.551269
     37          1           0        3.517348   -2.813022    4.089739
     38          6           0        3.051289   -1.687502    2.299779
     39          1           0        2.437778   -2.487342    1.868639
     40          6           0        3.358149   -1.491772   -1.109741
     41          6           0        4.697628   -1.816242   -0.800041
     42          1           0        5.172789   -1.384583    0.086659
     43          6           0        5.421328   -2.701283   -1.614881
     44          1           0        6.459348   -2.943173   -1.362681
     45          6           0        4.816768   -3.277902   -2.743601
     46          1           0        5.381568   -3.971153   -3.375701
     47          6           0        3.482538   -2.969102   -3.052641
     48          1           0        3.000198   -3.421222   -3.925661
     49          6           0        2.755928   -2.085512   -2.239091
     50          1           0        1.712618   -1.860461   -2.478621
     51          6           0       -3.222991   -0.478600   -1.591361
     52          6           0       -3.998281    0.548621   -2.162321
     53          1           0       -4.133600    1.492221   -1.625311
     54          6           0       -4.594961    0.365001   -3.422451
     55          1           0       -5.190651    1.172881   -3.860501
     56          6           0       -4.427981   -0.842689   -4.115951
     57          1           0       -4.893361   -0.982189   -5.097301
     58          6           0       -3.655402   -1.872099   -3.549891
     59          1           0       -3.517122   -2.816090   -4.087641
     60          6           0       -3.051171   -1.689220   -2.298501
     61          1           0       -2.437692   -2.488740   -1.866721
     62          6           0       -3.358241   -1.490890    1.110849
     63          6           0       -4.697612   -1.815799    0.801149
     64          1           0       -5.172621   -1.384989   -0.086051
     65          6           0       -5.421382   -2.700199    1.616609
     66          1           0       -6.459312   -2.942449    1.364399
     67          6           0       -4.817002   -3.275749    2.745979
     68          1           0       -5.381852   -3.968509    3.378569
     69          6           0       -3.482862   -2.966530    3.055019
     70          1           0       -3.000672   -3.417820    3.928549
     71          6           0       -2.756182   -2.083580    2.240839
     72          1           0       -1.712952   -1.858210    2.480399
 ---------------------------------------------------------------------
 Rotational constants (GHZ):      0.0921767      0.0512210      0.0506069
 Leave Link  202 at Sat Apr 11 14:14:33 2020, MaxMem=  1879048192 cpu:         0.0
 (Enter /home/programs/G09_D/g09/l301.exe)
 General basis read from cards:  (5D, 7F)
 Centers:       7      8      9     10     11     13     15     17     19     20
 Centers:      22     24     26     28     29     30     32     34     36     38
 Centers:      40     41     43     45     47     49     51     52     54     56
 Centers:      58     60     62     63     65     67     69     71
 6-31G**
 *****
 Centers:      12     14     16     18     21     23     25     27     31     33
 Centers:      35     37     39     42     44     46     48     50     53     55
 Centers:      57     59     61     64     66     68     70     72
 6-31G**
 *****
 Centers:       5      6
 6-31G**
 *****
 Centers:       3      4
 SDDALL
 D 1 1.
     Exponent=  3.8700000000D-01 Coefficients=  1.0000000000D+00
 *****
 Centers:       1
 SDDALL
 *****
 Centers:       2
 SDDALL
 *****
 ======================================================================================================
                                       Pseudopotential Parameters
 ======================================================================================================
  Center     Atomic      Valence      Angular      Power
  Number     Number     Electrons     Momentum     of R      Exponent        Coefficient   SO-Coeffient
 ======================================================================================================
    1         44           16
                                      G and up 
                                                     2        1.0000000        0.00000000    0.00000000
                                      S - G
                                                     2       11.1052690      209.82297100    0.00000000
                                                     2        5.4147450       30.65472600    0.00000000
                                      P - G
                                                     2        9.7712710      146.33618200    0.00000000
                                                     2        5.0739910       24.12787700    0.00000000
                                      D - G
                                                     2        7.6714230       67.51589700    0.00000000
                                                     2        4.1365650        9.87010400    0.00000000
                                      F - G
                                                     2       11.3600000      -28.34061600    0.00000000
                                                     2        5.6800000       -4.94462900    0.00000000
    2         30           20
                                      F and up 
                                                     2        1.0000000        0.00000000    0.00000000
                                      S - F
                                                     2       34.1500000      399.98728200    0.00000000
                                                     2       14.5900000       85.48565500    0.00000000
                                      P - F
                                                     2       39.7800000      277.14896000    0.00000000
                                                     2       14.9500000       69.05220500    0.00000000
                                      D - F
                                                     2       43.8000000      -34.14934900    0.00000000
                                                     2       14.9800000       -3.29183100    0.00000000
    3         15            5
                                      F and up 
                                                     2        1.0000000        0.00000000    0.00000000
                                      S - F
                                                     2        2.9405599       26.53226131    0.00000000
                                      P - F
                                                     2        2.2277126       11.49721021    0.00000000
                                      D - F
                                                     2        5.6617060      -16.77278000    0.00000000
    4         15            5
                                      F and up 
                                                     2        1.0000000        0.00000000    0.00000000
                                      S - F
                                                     2        2.9405599       26.53226131    0.00000000
                                      P - F
                                                     2        2.2277126       11.49721021    0.00000000
                                      D - F
                                                     2        5.6617060      -16.77278000    0.00000000
    5          8
                                   No pseudopotential on this center.
    6          8
                                   No pseudopotential on this center.
    7          6
                                   No pseudopotential on this center.
    8          6
                                   No pseudopotential on this center.
    9          6
                                   No pseudopotential on this center.
   10          6
                                   No pseudopotential on this center.
   11          6
                                   No pseudopotential on this center.
   12          1
                                   No pseudopotential on this center.
   13          6
                                   No pseudopotential on this center.
   14          1
                                   No pseudopotential on this center.
   15          6
                                   No pseudopotential on this center.
   16          1
                                   No pseudopotential on this center.
   17          6
                                   No pseudopotential on this center.
   18          1
                                   No pseudopotential on this center.
   19          6
                                   No pseudopotential on this center.
   20          6
                                   No pseudopotential on this center.
   21          1
                                   No pseudopotential on this center.
   22          6
                                   No pseudopotential on this center.
   23          1
                                   No pseudopotential on this center.
   24          6
                                   No pseudopotential on this center.
   25          1
                                   No pseudopotential on this center.
   26          6
                                   No pseudopotential on this center.
   27          1
                                   No pseudopotential on this center.
   28          6
                                   No pseudopotential on this center.
   29          6
                                   No pseudopotential on this center.
   30          6
                                   No pseudopotential on this center.
   31          1
                                   No pseudopotential on this center.
   32          6
                                   No pseudopotential on this center.
   33          1
                                   No pseudopotential on this center.
   34          6
                                   No pseudopotential on this center.
   35          1
                                   No pseudopotential on this center.
   36          6
                                   No pseudopotential on this center.
   37          1
                                   No pseudopotential on this center.
   38          6
                                   No pseudopotential on this center.
   39          1
                                   No pseudopotential on this center.
   40          6
                                   No pseudopotential on this center.
   41          6
                                   No pseudopotential on this center.
   42          1
                                   No pseudopotential on this center.
   43          6
                                   No pseudopotential on this center.
   44          1
                                   No pseudopotential on this center.
   45          6
                                   No pseudopotential on this center.
   46          1
                                   No pseudopotential on this center.
   47          6
                                   No pseudopotential on this center.
   48          1
                                   No pseudopotential on this center.
   49          6
                                   No pseudopotential on this center.
   50          1
                                   No pseudopotential on this center.
   51          6
                                   No pseudopotential on this center.
   52          6
                                   No pseudopotential on this center.
   53          1
                                   No pseudopotential on this center.
   54          6
                                   No pseudopotential on this center.
   55          1
                                   No pseudopotential on this center.
   56          6
                                   No pseudopotential on this center.
   57          1
                                   No pseudopotential on this center.
   58          6
                                   No pseudopotential on this center.
   59          1
                                   No pseudopotential on this center.
   60          6
                                   No pseudopotential on this center.
   61          1
                                   No pseudopotential on this center.
   62          6
                                   No pseudopotential on this center.
   63          6
                                   No pseudopotential on this center.
   64          1
                                   No pseudopotential on this center.
   65          6
                                   No pseudopotential on this center.
   66          1
                                   No pseudopotential on this center.
   67          6
                                   No pseudopotential on this center.
   68          1
                                   No pseudopotential on this center.
   69          6
                                   No pseudopotential on this center.
   70          1
                                   No pseudopotential on this center.
   71          6
                                   No pseudopotential on this center.
   72          1
                                   No pseudopotential on this center.
 ======================================================================================================
 Ernie: Thresh=  0.10000D-02 Tol=  0.10000D-05 Strict=F.
 There are   846 symmetry adapted cartesian basis functions of A   symmetry.
 There are   798 symmetry adapted basis functions of A   symmetry.
   798 basis functions,  1490 primitive gaussians,   846 cartesian basis functions
   159 alpha electrons      159 beta electrons
       nuclear repulsion energy      5478.6541114752 Hartrees.
 IExCor=  404 DFT=T Ex=B Corr=P86 ExCW=0 ScaHFX=  0.000000
 ScaDFX=  1.000000  1.000000  1.000000  1.000000 ScalE2=  1.000000  1.000000
 IRadAn=      5 IRanWt=     -1 IRanGd=            0 ICorTp=0 IEmpDi=  4
 NAtoms=   72 NActive=   72 NUniq=   72 SFac= 1.00D+00 NAtFMM=   60 NAOKFM=T Big=T
 Integral buffers will be    131072 words long.
 Raffenetti 2 integral format.
 Two-electron integral symmetry is turned on.
 ------------------------------------------------------------------------------
 Polarizable Continuum Model (PCM)
 =================================
 Model                : PCM (using non-symmetric T matrix).
 Atomic radii         : UFF (Universal Force Field).
 Polarization charges : Total charges.
 Charge compensation  : None.
 Solution method      : On-the-fly selection.
 Cavity type          : Scaled VdW (van der Waals Surface) (Alpha=1.100).
 Cavity algorithm     : GePol (No added spheres)
                        Default sphere list used, NSphG=   72.
                        Lebedev-Laikov grids with approx.  5.0 points / Ang**2.
                        Smoothing algorithm: Karplus/York (Gamma=1.0000).
                        Polarization charges: spherical gaussians, with
                                              point-specific exponents (IZeta= 3).
                        Self-potential: point-specific (ISelfS= 7).
                        Self-field    : sphere-specific E.n sum rule (ISelfD= 2).
 Solvent              : Benzene, Eps=   2.270600 Eps(inf)=   2.253301
 ------------------------------------------------------------------------------
 GePol: Number of generator spheres                  =      72
 GePol: Total number of spheres                      =      72
 GePol: Number of exposed spheres                    =      72 (100.00%)
 GePol: Number of points                             =    5405
 GePol: Average weight of points                     =       0.13
 GePol: Minimum weight of points                     =   0.55D-11
 GePol: Maximum weight of points                     =    0.21981
 GePol: Number of points with low weight             =     390
 GePol: Fraction of low-weight points (<1% of avg)   =       7.22%
 GePol: Cavity surface area                          =    693.156 Ang**2
 GePol: Cavity volume                                =    827.169 Ang**3
 Leave Link  301 at Sat Apr 11 14:14:36 2020, MaxMem=  1879048192 cpu:         1.0
 (Enter /home/programs/G09_D/g09/l302.exe)
 NPDir=0 NMtPBC=     1 NCelOv=     1 NCel=       1 NClECP=     1 NCelD=      1
         NCelK=      1 NCelE2=     1 NClLst=     1 CellRange=     0.0.
 One-electron integrals computed using PRISM.
   1 Symmetry operations used in ECPInt.
 ECPInt:  NShTT=   39903 NPrTT=  205958 LenC2=   29192 LenP2D=   83033.
 LDataN:  DoStor=T MaxTD1= 6 Len=  172
 NBasis=   798 RedAO= T EigKep=  4.59D-04  NBF=   798
 NBsUse=   798 1.00D-06 EigRej= -1.00D+00 NBFU=   798
 Precomputing XC quadrature grid using
 IXCGrd= 4 IRadAn=           5 IRanWt=          -1 IRanGd=           0 AccXCQ= 0.00D+00.
 Defaulting to unpruned grid for atomic number  44.
 Generated NRdTot=       0 NPtTot=           0 NUsed=           0 NTot=          32
 NSgBfM=   790   791   794   794   794 MxSgAt=    72 MxSgA2=    72.
 Leave Link  302 at Sat Apr 11 14:14:42 2020, MaxMem=  1879048192 cpu:        32.9
 (Enter /home/programs/G09_D/g09/l303.exe)
 DipDrv:  MaxL=1.
 Leave Link  303 at Sat Apr 11 14:14:45 2020, MaxMem=  1879048192 cpu:         1.3
 (Enter /home/programs/G09_D/g09/l401.exe)
 ExpMin= 1.00D-02 ExpMax= 5.48D+03 ExpMxC= 8.25D+02 IAcc=3 IRadAn=         5 AccDes= 0.00D+00
 Harris functional with IExCor=  404 and IRadAn=       5 diagonalized for initial guess.
 HarFok:  IExCor=  404 AccDes= 0.00D+00 IRadAn=         5 IDoV= 1 UseB2=F ITyADJ=14
 ICtDFT=  3500011 ScaDFX=  1.000000  1.000000  1.000000  1.000000
 Defaulting to unpruned grid for atomic number  44.
 Defaulting to unpruned grid for atomic number  44.
 Defaulting to unpruned grid for atomic number  44.
 Defaulting to unpruned grid for atomic number  44.
 Defaulting to unpruned grid for atomic number  44.
 Defaulting to unpruned grid for atomic number  44.
 Defaulting to unpruned grid for atomic number  44.
 Defaulting to unpruned grid for atomic number  44.
 FoFCou: FMM=F IPFlag=           0 FMFlag=      100000 FMFlg1=        2001
         NFxFlg=           0 DoJE=T BraDBF=F KetDBF=T FulRan=T
         wScrn=  0.000000 ICntrl=     500 IOpCl=  0 I1Cent=   200000004 NGrid=           0
         NMat0=    1 NMatS0=      1 NMatT0=    0 NMatD0=    1 NMtDS0=    0 NMtDT0=    0
 Petite list used in FoFCou.
 Harris En= -1951.39760790429    
 JPrj=0 DoOrth=F DoCkMO=F.
 Leave Link  401 at Sat Apr 11 14:15:02 2020, MaxMem=  1879048192 cpu:       118.0
 (Enter /home/programs/G09_D/g09/l502.exe)
 Closed shell SCF:
 Using DIIS extrapolation, IDIIS=  1040.
 Integral symmetry usage will be decided dynamically.
 IVT=     2178766 IEndB=     2178766 NGot=  1879048192 MDV=  1877602629
 LenX=  1877602629 LenY=  1876886067
 Requested convergence on RMS density matrix=1.00D-08 within 128 cycles.
 Requested convergence on MAX density matrix=1.00D-06.
 Requested convergence on             energy=1.00D-06.
 No special actions if energy rises.
 Fock matrices will be formed incrementally for  20 cycles.

 Cycle   1  Pass 1  IDiag  1:
 FoFJK:  IHMeth= 1 ICntrl=     500 DoSepK=F KAlg= 0 I1Cent=   0 FoldK=F
 IRaf= 810000000 NMat=   1 IRICut=       1 DoRegI=T DoRafI=F ISym2E= 0.
 FoFCou: FMM=T IPFlag=           0 FMFlag=      100000 FMFlg1=        2001
         NFxFlg=           0 DoJE=T BraDBF=F KetDBF=F FulRan=T
         wScrn=  0.000000 ICntrl=     500 IOpCl=  0 I1Cent=           0 NGrid=           0
         NMat0=    1 NMatS0=      1 NMatT0=    0 NMatD0=    1 NMtDS0=    0 NMtDT0=    0
 Symmetry not used in FoFCou.
 FMM levels:  10  Number of levels for PrismC:   9
 Defaulting to unpruned grid for atomic number  44.
 Defaulting to unpruned grid for atomic number  44.
 Defaulting to unpruned grid for atomic number  44.
 Defaulting to unpruned grid for atomic number  44.
 Defaulting to unpruned grid for atomic number  44.
 Defaulting to unpruned grid for atomic number  44.
 Defaulting to unpruned grid for atomic number  44.
 Defaulting to unpruned grid for atomic number  44.
 Inv3:  Mode=1 IEnd=    87642075.
 Iteration    1 A*A^-1 deviation from unit magnitude is 1.01D-14 for   5388.
 Iteration    1 A*A^-1 deviation from orthogonality  is 8.41D-15 for   5247   4849.
 Iteration    1 A^-1*A deviation from unit magnitude is 9.99D-15 for   2680.
 Iteration    1 A^-1*A deviation from orthogonality  is 1.62D-13 for   3976   3949.
 E= -1949.52623525612    
 DIIS: error= 4.20D-02 at cycle   1 NSaved=   1.
 NSaved= 1 IEnMin= 1 EnMin= -1949.52623525612     IErMin= 1 ErrMin= 4.20D-02
 ErrMax= 4.20D-02  0.00D+00 EMaxC= 1.00D-01 BMatC= 1.47D+00 BMatP= 1.47D+00
 IDIUse=3 WtCom= 5.80D-01 WtEn= 4.20D-01
 Coeff-Com:  0.100D+01
 Coeff-En:   0.100D+01
 Coeff:      0.100D+01
 Gap=     0.566 Goal=   None    Shift=    0.000
 GapD=    0.566 DampG=2.000 DampE=0.250 DampFc=0.5000 IDamp=-1.
 Damping current iteration by 5.00D-01
 RMSDP=5.85D-03 MaxDP=1.21D+00              OVMax= 6.30D-01

 Cycle   2  Pass 1  IDiag  1:
 RMSU=  2.92D-03    CP:  9.81D-01
 E= -1947.88908512087     Delta-E=        1.637150135249 Rises=F Damp=T
 DIIS: error= 4.90D-02 at cycle   2 NSaved=   2.
 NSaved= 2 IEnMin= 1 EnMin= -1949.52623525612     IErMin= 1 ErrMin= 4.20D-02
 ErrMax= 4.90D-02  0.00D+00 EMaxC= 1.00D-01 BMatC= 1.39D+00 BMatP= 1.47D+00
 IDIUse=3 WtCom= 5.10D-01 WtEn= 4.90D-01
 Coeff-Com:  0.491D+00 0.509D+00
 Coeff-En:   0.694D+00 0.306D+00
 Coeff:      0.591D+00 0.409D+00
 Gap=     0.007 Goal=   None    Shift=    0.000
 RMSDP=2.64D-03 MaxDP=6.44D-01 DE= 1.64D+00 OVMax= 9.27D-01

 Cycle   3  Pass 1  IDiag  1:
 RMSU=  1.95D-03    CP:  9.74D-01  3.91D-01
 E= -1950.39281317840     Delta-E=       -2.503728057525 Rises=F Damp=F
 DIIS: error= 1.46D-02 at cycle   3 NSaved=   3.
 NSaved= 3 IEnMin= 3 EnMin= -1950.39281317840     IErMin= 3 ErrMin= 1.46D-02
 ErrMax= 1.46D-02  0.00D+00 EMaxC= 1.00D-01 BMatC= 4.62D-01 BMatP= 1.39D+00
 IDIUse=3 WtCom= 8.54D-01 WtEn= 1.46D-01
 Coeff-Com:  0.318D+00 0.276D+00 0.406D+00
 Coeff-En:   0.223D+00 0.000D+00 0.777D+00
 Coeff:      0.304D+00 0.236D+00 0.460D+00
 Gap=     0.101 Goal=   None    Shift=    0.000
 RMSDP=1.35D-03 MaxDP=8.97D-02 DE=-2.50D+00 OVMax= 1.16D-01

 Cycle   4  Pass 1  IDiag  1:
 RMSU=  8.47D-04    CP:  9.83D-01  2.67D-01  4.98D-01
 E= -1950.71188661190     Delta-E=       -0.319073433497 Rises=F Damp=F
 DIIS: error= 1.44D-02 at cycle   4 NSaved=   4.
 NSaved= 4 IEnMin= 4 EnMin= -1950.71188661190     IErMin= 4 ErrMin= 1.44D-02
 ErrMax= 1.44D-02  0.00D+00 EMaxC= 1.00D-01 BMatC= 1.87D-01 BMatP= 4.62D-01
 IDIUse=3 WtCom= 8.56D-01 WtEn= 1.44D-01
 Coeff-Com:  0.150D+00 0.152D+00 0.345D+00 0.352D+00
 Coeff-En:   0.000D+00 0.000D+00 0.260D+00 0.740D+00
 Coeff:      0.129D+00 0.130D+00 0.333D+00 0.408D+00
 Gap=     0.079 Goal=   None    Shift=    0.000
 RMSDP=6.73D-04 MaxDP=9.67D-02 DE=-3.19D-01 OVMax= 1.15D-01

 Cycle   5  Pass 1  IDiag  1:
 RMSU=  5.24D-04    CP:  9.82D-01  2.96D-01  5.81D-01  5.50D-01
 E= -1950.82026298167     Delta-E=       -0.108376369771 Rises=F Damp=F
 DIIS: error= 8.02D-03 at cycle   5 NSaved=   5.
 NSaved= 5 IEnMin= 5 EnMin= -1950.82026298167     IErMin= 5 ErrMin= 8.02D-03
 ErrMax= 8.02D-03  0.00D+00 EMaxC= 1.00D-01 BMatC= 4.78D-02 BMatP= 1.87D-01
 IDIUse=3 WtCom= 9.20D-01 WtEn= 8.02D-02
 Coeff-Com:  0.433D-01 0.399D-01 0.173D+00 0.324D+00 0.420D+00
 Coeff-En:   0.000D+00 0.000D+00 0.000D+00 0.280D+00 0.720D+00
 Coeff:      0.399D-01 0.367D-01 0.159D+00 0.320D+00 0.444D+00
 Gap=     0.066 Goal=   None    Shift=    0.000
 RMSDP=3.85D-04 MaxDP=7.57D-02 DE=-1.08D-01 OVMax= 9.52D-02

 Cycle   6  Pass 1  IDiag  1:
 RMSU=  2.08D-04    CP:  9.83D-01  2.89D-01  5.52D-01  6.78D-01  4.28D-01
 E= -1950.84778343199     Delta-E=       -0.027520450322 Rises=F Damp=F
 DIIS: error= 6.59D-03 at cycle   6 NSaved=   6.
 NSaved= 6 IEnMin= 6 EnMin= -1950.84778343199     IErMin= 6 ErrMin= 6.59D-03
 ErrMax= 6.59D-03  0.00D+00 EMaxC= 1.00D-01 BMatC= 2.09D-02 BMatP= 4.78D-02
 IDIUse=3 WtCom= 9.34D-01 WtEn= 6.59D-02
 Coeff-Com: -0.258D-02 0.144D-01 0.653D-01 0.196D+00 0.388D+00 0.338D+00
 Coeff-En:   0.000D+00 0.000D+00 0.000D+00 0.000D+00 0.326D+00 0.674D+00
 Coeff:     -0.241D-02 0.135D-01 0.610D-01 0.183D+00 0.384D+00 0.361D+00
 Gap=     0.072 Goal=   None    Shift=    0.000
 RMSDP=1.72D-04 MaxDP=3.46D-02 DE=-2.75D-02 OVMax= 5.67D-02

 Cycle   7  Pass 1  IDiag  1:
 RMSU=  8.06D-05    CP:  9.82D-01  3.01D-01  5.79D-01  6.56D-01  5.91D-01
                    CP:  4.90D-01
 E= -1950.86282425917     Delta-E=       -0.015040827179 Rises=F Damp=F
 DIIS: error= 1.34D-03 at cycle   7 NSaved=   7.
 NSaved= 7 IEnMin= 7 EnMin= -1950.86282425917     IErMin= 7 ErrMin= 1.34D-03
 ErrMax= 1.34D-03  0.00D+00 EMaxC= 1.00D-01 BMatC= 1.17D-03 BMatP= 2.09D-02
 IDIUse=3 WtCom= 9.87D-01 WtEn= 1.34D-02
 Coeff-Com: -0.443D-02 0.821D-04 0.168D-01 0.613D-01 0.177D+00 0.242D+00
 Coeff-Com:  0.507D+00
 Coeff-En:   0.000D+00 0.000D+00 0.000D+00 0.000D+00 0.000D+00 0.869D-01
 Coeff-En:   0.913D+00
 Coeff:     -0.437D-02 0.810D-04 0.165D-01 0.605D-01 0.175D+00 0.240D+00
 Coeff:      0.512D+00
 Gap=     0.071 Goal=   None    Shift=    0.000
 RMSDP=5.18D-05 MaxDP=6.21D-03 DE=-1.50D-02 OVMax= 1.10D-02

 Cycle   8  Pass 1  IDiag  1:
 RMSU=  3.03D-05    CP:  9.82D-01  2.98D-01  5.79D-01  6.58D-01  5.94D-01
                    CP:  5.33D-01  5.07D-01
 E= -1950.86361384836     Delta-E=       -0.000789589196 Rises=F Damp=F
 DIIS: error= 3.77D-04 at cycle   8 NSaved=   8.
 NSaved= 8 IEnMin= 8 EnMin= -1950.86361384836     IErMin= 8 ErrMin= 3.77D-04
 ErrMax= 3.77D-04  0.00D+00 EMaxC= 1.00D-01 BMatC= 1.41D-04 BMatP= 1.17D-03
 IDIUse=3 WtCom= 9.96D-01 WtEn= 3.77D-03
 Coeff-Com: -0.290D-02-0.239D-03 0.756D-02 0.293D-01 0.958D-01 0.143D+00
 Coeff-Com:  0.370D+00 0.358D+00
 Coeff-En:   0.000D+00 0.000D+00 0.000D+00 0.000D+00 0.000D+00 0.000D+00
 Coeff-En:   0.175D+00 0.825D+00
 Coeff:     -0.289D-02-0.238D-03 0.753D-02 0.292D-01 0.955D-01 0.143D+00
 Coeff:      0.369D+00 0.359D+00
 Gap=     0.071 Goal=   None    Shift=    0.000
 RMSDP=2.10D-05 MaxDP=1.52D-03 DE=-7.90D-04 OVMax= 3.51D-03

 Cycle   9  Pass 1  IDiag  1:
 RMSU=  9.90D-06    CP:  9.82D-01  2.98D-01  5.77D-01  6.57D-01  5.90D-01
                    CP:  5.27D-01  5.44D-01  4.14D-01
 E= -1950.86376389509     Delta-E=       -0.000150046725 Rises=F Damp=F
 DIIS: error= 1.15D-04 at cycle   9 NSaved=   9.
 NSaved= 9 IEnMin= 9 EnMin= -1950.86376389509     IErMin= 9 ErrMin= 1.15D-04
 ErrMax= 1.15D-04  0.00D+00 EMaxC= 1.00D-01 BMatC= 1.45D-05 BMatP= 1.41D-04
 IDIUse=3 WtCom= 9.99D-01 WtEn= 1.15D-03
 Coeff-Com: -0.121D-02-0.247D-03 0.257D-02 0.100D-01 0.383D-01 0.588D-01
 Coeff-Com:  0.186D+00 0.253D+00 0.453D+00
 Coeff-En:   0.000D+00 0.000D+00 0.000D+00 0.000D+00 0.000D+00 0.000D+00
 Coeff-En:   0.000D+00 0.695D-01 0.930D+00
 Coeff:     -0.121D-02-0.247D-03 0.256D-02 0.100D-01 0.383D-01 0.588D-01
 Coeff:      0.186D+00 0.253D+00 0.453D+00
 Gap=     0.071 Goal=   None    Shift=    0.000
 RMSDP=6.49D-06 MaxDP=3.91D-04 DE=-1.50D-04 OVMax= 1.34D-03

 Cycle  10  Pass 1  IDiag  1:
 RMSU=  3.42D-06    CP:  9.82D-01  2.98D-01  5.78D-01  6.58D-01  5.90D-01
                    CP:  5.27D-01  5.55D-01  4.60D-01  4.82D-01
 E= -1950.86377865577     Delta-E=       -0.000014760682 Rises=F Damp=F
 DIIS: error= 3.07D-05 at cycle  10 NSaved=  10.
 NSaved=10 IEnMin=10 EnMin= -1950.86377865577     IErMin=10 ErrMin= 3.07D-05
 ErrMax= 3.07D-05  0.00D+00 EMaxC= 1.00D-01 BMatC= 1.48D-06 BMatP= 1.45D-05
 IDIUse=1 WtCom= 1.00D+00 WtEn= 0.00D+00
 Coeff-Com: -0.325D-03-0.486D-04 0.548D-03 0.179D-02 0.953D-02 0.138D-01
 Coeff-Com:  0.585D-01 0.950D-01 0.280D+00 0.541D+00
 Coeff:     -0.325D-03-0.486D-04 0.548D-03 0.179D-02 0.953D-02 0.138D-01
 Coeff:      0.585D-01 0.950D-01 0.280D+00 0.541D+00
 Gap=     0.071 Goal=   None    Shift=    0.000
 RMSDP=1.96D-06 MaxDP=1.42D-04 DE=-1.48D-05 OVMax= 3.86D-04

 Cycle  11  Pass 1  IDiag  1:
 RMSU=  1.13D-06    CP:  9.82D-01  2.98D-01  5.78D-01  6.57D-01  5.91D-01
                    CP:  5.26D-01  5.58D-01  4.52D-01  5.42D-01  6.03D-01
 E= -1950.86377991416     Delta-E=       -0.000001258386 Rises=F Damp=F
 DIIS: error= 1.21D-05 at cycle  11 NSaved=  11.
 NSaved=11 IEnMin=11 EnMin= -1950.86377991416     IErMin=11 ErrMin= 1.21D-05
 ErrMax= 1.21D-05  0.00D+00 EMaxC= 1.00D-01 BMatC= 2.05D-07 BMatP= 1.48D-06
 IDIUse=1 WtCom= 1.00D+00 WtEn= 0.00D+00
 Coeff-Com: -0.165D-03-0.180D-04 0.164D-03 0.475D-03 0.394D-02 0.527D-02
 Coeff-Com:  0.272D-01 0.467D-01 0.158D+00 0.363D+00 0.396D+00
 Coeff:     -0.165D-03-0.180D-04 0.164D-03 0.475D-03 0.394D-02 0.527D-02
 Coeff:      0.272D-01 0.467D-01 0.158D+00 0.363D+00 0.396D+00
 Gap=     0.071 Goal=   None    Shift=    0.000
 RMSDP=7.42D-07 MaxDP=5.05D-05 DE=-1.26D-06 OVMax= 1.03D-04

 Cycle  12  Pass 1  IDiag  1:
 RMSU=  4.07D-07    CP:  9.82D-01  2.98D-01  5.78D-01  6.57D-01  5.91D-01
                    CP:  5.26D-01  5.58D-01  4.57D-01  5.53D-01  6.29D-01
                    CP:  5.02D-01
 E= -1950.86378015218     Delta-E=       -0.000000238017 Rises=F Damp=F
 DIIS: error= 3.90D-06 at cycle  12 NSaved=  12.
 NSaved=12 IEnMin=12 EnMin= -1950.86378015218     IErMin=12 ErrMin= 3.90D-06
 ErrMax= 3.90D-06  0.00D+00 EMaxC= 1.00D-01 BMatC= 1.52D-08 BMatP= 2.05D-07
 IDIUse=1 WtCom= 1.00D+00 WtEn= 0.00D+00
 Coeff-Com: -0.612D-04 0.175D-05 0.369D-04 0.592D-04 0.126D-02 0.147D-02
 Coeff-Com:  0.939D-02 0.165D-01 0.611D-01 0.152D+00 0.245D+00 0.513D+00
 Coeff:     -0.612D-04 0.175D-05 0.369D-04 0.592D-04 0.126D-02 0.147D-02
 Coeff:      0.939D-02 0.165D-01 0.611D-01 0.152D+00 0.245D+00 0.513D+00
 Gap=     0.071 Goal=   None    Shift=    0.000
 RMSDP=2.40D-07 MaxDP=1.39D-05 DE=-2.38D-07 OVMax= 4.18D-05

 Cycle  13  Pass 1  IDiag  1:
 RMSU=  1.44D-07    CP:  9.82D-01  2.98D-01  5.78D-01  6.57D-01  5.91D-01
                    CP:  5.26D-01  5.58D-01  4.57D-01  5.55D-01  6.24D-01
                    CP:  5.42D-01  5.72D-01
 E= -1950.86378016019     Delta-E=       -0.000000008016 Rises=F Damp=F
 DIIS: error= 1.61D-06 at cycle  13 NSaved=  13.
 NSaved=13 IEnMin=13 EnMin= -1950.86378016019     IErMin=13 ErrMin= 1.61D-06
 ErrMax= 1.61D-06  0.00D+00 EMaxC= 1.00D-01 BMatC= 3.90D-09 BMatP= 1.52D-08
 IDIUse=1 WtCom= 1.00D+00 WtEn= 0.00D+00
 Coeff-Com: -0.248D-04 0.251D-05-0.370D-05-0.369D-04 0.350D-03 0.296D-03
 Coeff-Com:  0.299D-02 0.538D-02 0.217D-01 0.570D-01 0.118D+00 0.375D+00
 Coeff-Com:  0.420D+00
 Coeff:     -0.248D-04 0.251D-05-0.370D-05-0.369D-04 0.350D-03 0.296D-03
 Coeff:      0.299D-02 0.538D-02 0.217D-01 0.570D-01 0.118D+00 0.375D+00
 Coeff:      0.420D+00
 Gap=     0.071 Goal=   None    Shift=    0.000
 RMSDP=1.01D-07 MaxDP=8.66D-06 DE=-8.02D-09 OVMax= 1.85D-05

 Cycle  14  Pass 1  IDiag  1:
 RMSU=  4.78D-08    CP:  9.82D-01  2.98D-01  5.78D-01  6.57D-01  5.91D-01
                    CP:  5.26D-01  5.58D-01  4.57D-01  5.55D-01  6.30D-01
                    CP:  5.41D-01  6.29D-01  5.51D-01
 E= -1950.86378016380     Delta-E=       -0.000000003606 Rises=F Damp=F
 DIIS: error= 5.77D-07 at cycle  14 NSaved=  14.
 NSaved=14 IEnMin=14 EnMin= -1950.86378016380     IErMin=14 ErrMin= 5.77D-07
 ErrMax= 5.77D-07  0.00D+00 EMaxC= 1.00D-01 BMatC= 2.17D-10 BMatP= 3.90D-09
 IDIUse=1 WtCom= 1.00D+00 WtEn= 0.00D+00
 Coeff-Com: -0.101D-04 0.185D-05-0.375D-05-0.266D-04 0.127D-03 0.778D-04
 Coeff-Com:  0.115D-02 0.215D-02 0.881D-02 0.240D-01 0.547D-01 0.194D+00
 Coeff-Com:  0.258D+00 0.458D+00
 Coeff:     -0.101D-04 0.185D-05-0.375D-05-0.266D-04 0.127D-03 0.778D-04
 Coeff:      0.115D-02 0.215D-02 0.881D-02 0.240D-01 0.547D-01 0.194D+00
 Coeff:      0.258D+00 0.458D+00
 Gap=     0.071 Goal=   None    Shift=    0.000
 RMSDP=3.09D-08 MaxDP=1.59D-06 DE=-3.61D-09 OVMax= 4.39D-06

 Cycle  15  Pass 1  IDiag  1:
 RMSU=  1.90D-08    CP:  9.82D-01  2.98D-01  5.78D-01  6.57D-01  5.91D-01
                    CP:  5.26D-01  5.58D-01  4.57D-01  5.54D-01  6.30D-01
                    CP:  5.41D-01  6.39D-01  5.39D-01  5.81D-01
 E= -1950.86378016598     Delta-E=       -0.000000002179 Rises=F Damp=F
 DIIS: error= 2.24D-07 at cycle  15 NSaved=  15.
 NSaved=15 IEnMin=15 EnMin= -1950.86378016598     IErMin=15 ErrMin= 2.24D-07
 ErrMax= 2.24D-07  0.00D+00 EMaxC= 1.00D-01 BMatC= 5.23D-11 BMatP= 2.17D-10
 IDIUse=1 WtCom= 1.00D+00 WtEn= 0.00D+00
 Coeff-Com: -0.317D-05 0.628D-06-0.283D-05-0.140D-04 0.274D-04 0.311D-05
 Coeff-Com:  0.286D-03 0.595D-03 0.242D-02 0.689D-02 0.176D-01 0.707D-01
 Coeff-Com:  0.108D+00 0.338D+00 0.455D+00
 Coeff:     -0.317D-05 0.628D-06-0.283D-05-0.140D-04 0.274D-04 0.311D-05
 Coeff:      0.286D-03 0.595D-03 0.242D-02 0.689D-02 0.176D-01 0.707D-01
 Coeff:      0.108D+00 0.338D+00 0.455D+00
 Gap=     0.071 Goal=   None    Shift=    0.000
 RMSDP=1.16D-08 MaxDP=6.58D-07 DE=-2.18D-09 OVMax= 2.10D-06

 Cycle  16  Pass 1  IDiag  1:
 RMSU=  6.55D-09    CP:  9.82D-01  2.98D-01  5.78D-01  6.57D-01  5.91D-01
                    CP:  5.26D-01  5.58D-01  4.57D-01  5.54D-01  6.30D-01
                    CP:  5.43D-01  6.42D-01  5.43D-01  6.41D-01  5.78D-01
 E= -1950.86378016446     Delta-E=        0.000000001516 Rises=F Damp=F
 DIIS: error= 4.70D-08 at cycle  16 NSaved=  16.
 NSaved=16 IEnMin=15 EnMin= -1950.86378016598     IErMin=16 ErrMin= 4.70D-08
 ErrMax= 4.70D-08  0.00D+00 EMaxC= 1.00D-01 BMatC= 3.54D-12 BMatP= 5.23D-11
 IDIUse=1 WtCom= 1.00D+00 WtEn= 0.00D+00
 Coeff-Com: -0.667D-06 0.252D-06-0.101D-05-0.509D-05 0.366D-05-0.370D-05
 Coeff-Com:  0.523D-04 0.134D-03 0.520D-03 0.155D-02 0.442D-02 0.201D-01
 Coeff-Com:  0.345D-01 0.151D+00 0.277D+00 0.511D+00
 Coeff:     -0.667D-06 0.252D-06-0.101D-05-0.509D-05 0.366D-05-0.370D-05
 Coeff:      0.523D-04 0.134D-03 0.520D-03 0.155D-02 0.442D-02 0.201D-01
 Coeff:      0.345D-01 0.151D+00 0.277D+00 0.511D+00
 Gap=     0.071 Goal=   None    Shift=    0.000
 RMSDP=4.60D-09 MaxDP=5.06D-07 DE= 1.52D-09 OVMax= 1.42D-06

 Cycle  17  Pass 1  IDiag  1:
 RMSU=  1.99D-09    CP:  9.82D-01  2.98D-01  5.78D-01  6.57D-01  5.91D-01
                    CP:  5.26D-01  5.58D-01  4.57D-01  5.54D-01  6.30D-01
                    CP:  5.43D-01  6.41D-01  5.50D-01  6.47D-01  5.84D-01
                    CP:  5.42D-01
 E= -1950.86378016605     Delta-E=       -0.000000001585 Rises=F Damp=F
 DIIS: error= 2.98D-08 at cycle  17 NSaved=  17.
 NSaved=17 IEnMin=17 EnMin= -1950.86378016605     IErMin=17 ErrMin= 2.98D-08
 ErrMax= 2.98D-08  0.00D+00 EMaxC= 1.00D-01 BMatC= 5.75D-13 BMatP= 3.54D-12
 IDIUse=1 WtCom= 1.00D+00 WtEn= 0.00D+00
 Coeff-Com: -0.205D-06 0.912D-07-0.458D-06-0.166D-05 0.160D-06-0.273D-05
 Coeff-Com:  0.979D-05 0.268D-04 0.949D-04 0.304D-03 0.894D-03 0.495D-02
 Coeff-Com:  0.927D-02 0.537D-01 0.111D+00 0.277D+00 0.543D+00
 Coeff:     -0.205D-06 0.912D-07-0.458D-06-0.166D-05 0.160D-06-0.273D-05
 Coeff:      0.979D-05 0.268D-04 0.949D-04 0.304D-03 0.894D-03 0.495D-02
 Coeff:      0.927D-02 0.537D-01 0.111D+00 0.277D+00 0.543D+00
 Gap=     0.071 Goal=   None    Shift=    0.000
 RMSDP=1.28D-09 MaxDP=1.32D-07 DE=-1.59D-09 OVMax= 3.47D-07

 Error on total polarization charges =  0.00955
 SCF Done:  E(RB-P86) =  -1950.86378017     A.U. after   17 cycles
            NFock= 17  Conv=0.13D-08     -V/T= 2.0876
 KE= 1.793798915477D+03 PE=-1.549202020543D+04 EE= 6.268703398315D+03
 Leave Link  502 at Sat Apr 11 14:25:50 2020, MaxMem=  1879048192 cpu:      5119.7
 (Enter /home/programs/G09_D/g09/l601.exe)
 Copying SCF densities to generalized density rwf, IOpCl= 0 IROHF=0.

 **********************************************************************

            Population analysis using the SCF density.

 **********************************************************************

 Orbital symmetries:
       Occupied  (A) (A) (A) (A) (A) (A) (A) (A) (A) (A) (A) (A)
                 (A) (A) (A) (A) (A) (A) (A) (A) (A) (A) (A) (A)
                 (A) (A) (A) (A) (A) (A) (A) (A) (A) (A) (A) (A)
                 (A) (A) (A) (A) (A) (A) (A) (A) (A) (A) (A) (A)
                 (A) (A) (A) (A) (A) (A) (A) (A) (A) (A) (A) (A)
                 (A) (A) (A) (A) (A) (A) (A) (A) (A) (A) (A) (A)
                 (A) (A) (A) (A) (A) (A) (A) (A) (A) (A) (A) (A)
                 (A) (A) (A) (A) (A) (A) (A) (A) (A) (A) (A) (A)
                 (A) (A) (A) (A) (A) (A) (A) (A) (A) (A) (A) (A)
                 (A) (A) (A) (A) (A) (A) (A) (A) (A) (A) (A) (A)
                 (A) (A) (A) (A) (A) (A) (A) (A) (A) (A) (A) (A)
                 (A) (A) (A) (A) (A) (A) (A) (A) (A) (A) (A) (A)
                 (A) (A) (A) (A) (A) (A) (A) (A) (A) (A) (A) (A)
                 (A) (A) (A)
       Virtual   (A) (A) (A) (A) (A) (A) (A) (A) (A) (A) (A) (A)
                 (A) (A) (A) (A) (A) (A) (A) (A) (A) (A) (A) (A)
                 (A) (A) (A) (A) (A) (A) (A) (A) (A) (A) (A) (A)
                 (A) (A) (A) (A) (A) (A) (A) (A) (A) (A) (A) (A)
                 (A) (A) (A) (A) (A) (A) (A) (A) (A) (A) (A) (A)
                 (A) (A) (A) (A) (A) (A) (A) (A) (A) (A) (A) (A)
                 (A) (A) (A) (A) (A) (A) (A) (A) (A) (A) (A) (A)
                 (A) (A) (A) (A) (A) (A) (A) (A) (A) (A) (A) (A)
                 (A) (A) (A) (A) (A) (A) (A) (A) (A) (A) (A) (A)
                 (A) (A) (A) (A) (A) (A) (A) (A) (A) (A) (A) (A)
                 (A) (A) (A) (A) (A) (A) (A) (A) (A) (A) (A) (A)
                 (A) (A) (A) (A) (A) (A) (A) (A) (A) (A) (A) (A)
                 (A) (A) (A) (A) (A) (A) (A) (A) (A) (A) (A) (A)
                 (A) (A) (A) (A) (A) (A) (A) (A) (A) (A) (A) (A)
                 (A) (A) (A) (A) (A) (A) (A) (A) (A) (A) (A) (A)
                 (A) (A) (A) (A) (A) (A) (A) (A) (A) (A) (A) (A)
                 (A) (A) (A) (A) (A) (A) (A) (A) (A) (A) (A) (A)
                 (A) (A) (A) (A) (A) (A) (A) (A) (A) (A) (A) (A)
                 (A) (A) (A) (A) (A) (A) (A) (A) (A) (A) (A) (A)
                 (A) (A) (A) (A) (A) (A) (A) (A) (A) (A) (A) (A)
                 (A) (A) (A) (A) (A) (A) (A) (A) (A) (A) (A) (A)
                 (A) (A) (A) (A) (A) (A) (A) (A) (A) (A) (A) (A)
                 (A) (A) (A) (A) (A) (A) (A) (A) (A) (A) (A) (A)
                 (A) (A) (A) (A) (A) (A) (A) (A) (A) (A) (A) (A)
                 (A) (A) (A) (A) (A) (A) (A) (A) (A) (A) (A) (A)
                 (A) (A) (A) (A) (A) (A) (A) (A) (A) (A) (A) (A)
                 (A) (A) (A) (A) (A) (A) (A) (A) (A) (A) (A) (A)
                 (A) (A) (A) (A) (A) (A) (A) (A) (A) (A) (A) (A)
                 (A) (A) (A) (A) (A) (A) (A) (A) (A) (A) (A) (A)
                 (A) (A) (A) (A) (A) (A) (A) (A) (A) (A) (A) (A)
                 (A) (A) (A) (A) (A) (A) (A) (A) (A) (A) (A) (A)
                 (A) (A) (A) (A) (A) (A) (A) (A) (A) (A) (A) (A)
                 (A) (A) (A) (A) (A) (A) (A) (A) (A) (A) (A) (A)
                 (A) (A) (A) (A) (A) (A) (A) (A) (A) (A) (A) (A)
                 (A) (A) (A) (A) (A) (A) (A) (A) (A) (A) (A) (A)
                 (A) (A) (A) (A) (A) (A) (A) (A) (A) (A) (A) (A)
                 (A) (A) (A) (A) (A) (A) (A) (A) (A) (A) (A) (A)
                 (A) (A) (A) (A) (A) (A) (A) (A) (A) (A) (A) (A)
                 (A) (A) (A) (A) (A) (A) (A) (A) (A) (A) (A) (A)
                 (A) (A) (A) (A) (A) (A) (A) (A) (A) (A) (A) (A)
                 (A) (A) (A) (A) (A) (A) (A) (A) (A) (A) (A) (A)
                 (A) (A) (A) (A) (A) (A) (A) (A) (A) (A) (A) (A)
                 (A) (A) (A) (A) (A) (A) (A) (A) (A) (A) (A) (A)
                 (A) (A) (A) (A) (A) (A) (A) (A) (A) (A) (A) (A)
                 (A) (A) (A) (A) (A) (A) (A) (A) (A) (A) (A) (A)
                 (A) (A) (A) (A) (A) (A) (A) (A) (A) (A) (A) (A)
                 (A) (A) (A) (A) (A) (A) (A) (A) (A) (A) (A) (A)
                 (A) (A) (A) (A) (A) (A) (A) (A) (A) (A) (A) (A)
                 (A) (A) (A) (A) (A) (A) (A) (A) (A) (A) (A) (A)
                 (A) (A) (A) (A) (A) (A) (A) (A) (A) (A) (A) (A)
                 (A) (A) (A) (A) (A) (A) (A) (A) (A) (A) (A) (A)
                 (A) (A) (A) (A) (A) (A) (A) (A) (A) (A) (A) (A)
                 (A) (A) (A) (A) (A) (A) (A) (A) (A) (A) (A) (A)
                 (A) (A) (A)
 The electronic state is 1-A.
 Alpha  occ. eigenvalues --  -18.84637 -18.84633 -10.00170 -10.00169  -9.93332
 Alpha  occ. eigenvalues --   -9.93331  -9.93018  -9.93018  -9.92570  -9.92570
 Alpha  occ. eigenvalues --   -9.92473  -9.92473  -9.92440  -9.92440  -9.92398
 Alpha  occ. eigenvalues --   -9.92397  -9.92379  -9.92379  -9.92313  -9.92313
 Alpha  occ. eigenvalues --   -9.92191  -9.92191  -9.92182  -9.92182  -9.92158
 Alpha  occ. eigenvalues --   -9.92158  -9.92104  -9.92104  -9.92088  -9.92087
 Alpha  occ. eigenvalues --   -9.91495  -9.91495  -9.91261  -9.91261  -9.91147
 Alpha  occ. eigenvalues --   -9.91147  -9.90716  -9.90715  -9.89640  -9.89637
 Alpha  occ. eigenvalues --   -4.80011  -3.03669  -3.03220  -3.02884  -2.85461
 Alpha  occ. eigenvalues --   -1.75353  -1.73574  -1.71232  -1.00645  -1.00629
 Alpha  occ. eigenvalues --   -0.78504  -0.78494  -0.77826  -0.77825  -0.76445
 Alpha  occ. eigenvalues --   -0.76415  -0.70431  -0.70363  -0.68081  -0.68079
 Alpha  occ. eigenvalues --   -0.67859  -0.67858  -0.67580  -0.67577  -0.66600
 Alpha  occ. eigenvalues --   -0.66589  -0.66012  -0.65846  -0.59640  -0.59377
 Alpha  occ. eigenvalues --   -0.55159  -0.55127  -0.54880  -0.54872  -0.54206
 Alpha  occ. eigenvalues --   -0.54160  -0.53410  -0.53349  -0.52750  -0.52494
 Alpha  occ. eigenvalues --   -0.51041  -0.50192  -0.49910  -0.48218  -0.46834
 Alpha  occ. eigenvalues --   -0.46685  -0.46012  -0.45827  -0.44263  -0.43784
 Alpha  occ. eigenvalues --   -0.41380  -0.41077  -0.41058  -0.40914  -0.40691
 Alpha  occ. eigenvalues --   -0.40437  -0.40394  -0.40011  -0.39977  -0.39689
 Alpha  occ. eigenvalues --   -0.39577  -0.39230  -0.38978  -0.38784  -0.38382
 Alpha  occ. eigenvalues --   -0.38342  -0.38222  -0.37692  -0.37635  -0.37609
 Alpha  occ. eigenvalues --   -0.37536  -0.37468  -0.37350  -0.37103  -0.37063
 Alpha  occ. eigenvalues --   -0.36756  -0.36305  -0.36289  -0.35945  -0.35940
 Alpha  occ. eigenvalues --   -0.34577  -0.34399  -0.33876  -0.33335  -0.33244
 Alpha  occ. eigenvalues --   -0.32901  -0.32829  -0.32259  -0.32099  -0.31705
 Alpha  occ. eigenvalues --   -0.31619  -0.30829  -0.30647  -0.30426  -0.30403
 Alpha  occ. eigenvalues --   -0.29929  -0.29295  -0.29032  -0.28057  -0.28054
 Alpha  occ. eigenvalues --   -0.26322  -0.25835  -0.24082  -0.23981  -0.23434
 Alpha  occ. eigenvalues --   -0.23421  -0.23219  -0.23107  -0.22788  -0.22483
 Alpha  occ. eigenvalues --   -0.22198  -0.21992  -0.21976  -0.21441  -0.21364
 Alpha  occ. eigenvalues --   -0.20552  -0.19454  -0.17480  -0.16598
 Alpha virt. eigenvalues --   -0.09467  -0.06459  -0.06038  -0.05594  -0.05574
 Alpha virt. eigenvalues --   -0.05363  -0.04937  -0.04634  -0.04554  -0.04311
 Alpha virt. eigenvalues --   -0.03954  -0.03776  -0.03472  -0.02634  -0.00999
 Alpha virt. eigenvalues --   -0.00800  -0.00006   0.00086   0.00541   0.02623
 Alpha virt. eigenvalues --    0.02710   0.03474   0.03492   0.04287   0.04720
 Alpha virt. eigenvalues --    0.05282   0.05716   0.05904   0.06607   0.07043
 Alpha virt. eigenvalues --    0.07808   0.08101   0.08506   0.08741   0.09143
 Alpha virt. eigenvalues --    0.09454   0.09682   0.09937   0.09963   0.10622
 Alpha virt. eigenvalues --    0.10819   0.11075   0.11209   0.11588   0.11591
 Alpha virt. eigenvalues --    0.12085   0.12461   0.12506   0.12536   0.13109
 Alpha virt. eigenvalues --    0.13168   0.13517   0.13741   0.14193   0.14723
 Alpha virt. eigenvalues --    0.15056   0.15116   0.15295   0.15575   0.15898
 Alpha virt. eigenvalues --    0.15944   0.16013   0.17016   0.17232   0.17355
 Alpha virt. eigenvalues --    0.17357   0.18277   0.18695   0.18887   0.19469
 Alpha virt. eigenvalues --    0.20113   0.20919   0.22119   0.22193   0.22458
 Alpha virt. eigenvalues --    0.22967   0.23296   0.23562   0.23975   0.24093
 Alpha virt. eigenvalues --    0.24769   0.25060   0.25426   0.25604   0.25831
 Alpha virt. eigenvalues --    0.26057   0.26091   0.26663   0.26779   0.27214
 Alpha virt. eigenvalues --    0.27349   0.27508   0.27921   0.28433   0.28720
 Alpha virt. eigenvalues --    0.28868   0.29100   0.29479   0.29881   0.30591
 Alpha virt. eigenvalues --    0.31581   0.31922   0.32797   0.33223   0.34123
 Alpha virt. eigenvalues --    0.34216   0.34386   0.36836   0.36943   0.37552
 Alpha virt. eigenvalues --    0.38725   0.39451   0.40685   0.41074   0.41406
 Alpha virt. eigenvalues --    0.42612   0.44235   0.44644   0.45590   0.46800
 Alpha virt. eigenvalues --    0.47581   0.47816   0.48229   0.48466   0.48547
 Alpha virt. eigenvalues --    0.48705   0.49013   0.49238   0.49431   0.49540
 Alpha virt. eigenvalues --    0.49933   0.49999   0.50325   0.50566   0.50606
 Alpha virt. eigenvalues --    0.50829   0.51070   0.51721   0.51819   0.51934
 Alpha virt. eigenvalues --    0.51940   0.52217   0.52366   0.52788   0.53267
 Alpha virt. eigenvalues --    0.53529   0.54207   0.54255   0.54337   0.54683
 Alpha virt. eigenvalues --    0.54779   0.55188   0.55304   0.55705   0.55777
 Alpha virt. eigenvalues --    0.55823   0.55861   0.56188   0.56504   0.56699
 Alpha virt. eigenvalues --    0.56836   0.56967   0.56986   0.57735   0.57822
 Alpha virt. eigenvalues --    0.58033   0.58574   0.58895   0.59097   0.59432
 Alpha virt. eigenvalues --    0.59716   0.60005   0.60187   0.60810   0.60877
 Alpha virt. eigenvalues --    0.61438   0.61905   0.62339   0.63077   0.63375
 Alpha virt. eigenvalues --    0.63684   0.63932   0.64083   0.65037   0.65675
 Alpha virt. eigenvalues --    0.66109   0.67355   0.67404   0.67756   0.68496
 Alpha virt. eigenvalues --    0.69614   0.69761   0.69925   0.70931   0.71470
 Alpha virt. eigenvalues --    0.71746   0.72296   0.72453   0.72533   0.73658
 Alpha virt. eigenvalues --    0.73941   0.75150   0.75575   0.76069   0.76145
 Alpha virt. eigenvalues --    0.76393   0.76526   0.76589   0.76682   0.76997
 Alpha virt. eigenvalues --    0.77073   0.77247   0.77410   0.77464   0.77756
 Alpha virt. eigenvalues --    0.77838   0.78313   0.79235   0.79428   0.79796
 Alpha virt. eigenvalues --    0.80176   0.80473   0.80724   0.80889   0.81049
 Alpha virt. eigenvalues --    0.81824   0.82192   0.83100   0.83192   0.83792
 Alpha virt. eigenvalues --    0.84488   0.84670   0.84676   0.84734   0.85312
 Alpha virt. eigenvalues --    0.85643   0.85680   0.86523   0.86884   0.87218
 Alpha virt. eigenvalues --    0.87273   0.87707   0.88099   0.88346   0.88564
 Alpha virt. eigenvalues --    0.89330   0.89356   0.89715   0.90035   0.90227
 Alpha virt. eigenvalues --    0.90612   0.91179   0.91328   0.91685   0.92643
 Alpha virt. eigenvalues --    0.92764   0.94015   0.94854   0.95285   0.95653
 Alpha virt. eigenvalues --    0.96471   0.96695   0.96754   0.96827   0.98299
 Alpha virt. eigenvalues --    0.99139   0.99446   1.00638   1.01311   1.01402
 Alpha virt. eigenvalues --    1.01566   1.02034   1.03405   1.03970   1.04254
 Alpha virt. eigenvalues --    1.04424   1.05395   1.05709   1.06201   1.06379
 Alpha virt. eigenvalues --    1.06802   1.07030   1.07541   1.08371   1.08440
 Alpha virt. eigenvalues --    1.09575   1.10175   1.10333   1.10496   1.11456
 Alpha virt. eigenvalues --    1.11903   1.12489   1.12753   1.13062   1.14265
 Alpha virt. eigenvalues --    1.14459   1.15929   1.16488   1.16804   1.17578
 Alpha virt. eigenvalues --    1.18829   1.18911   1.19928   1.20278   1.20987
 Alpha virt. eigenvalues --    1.21288   1.21405   1.21886   1.22882   1.24150
 Alpha virt. eigenvalues --    1.24586   1.24774   1.25295   1.25919   1.26211
 Alpha virt. eigenvalues --    1.27039   1.28449   1.29471   1.29480   1.30345
 Alpha virt. eigenvalues --    1.30871   1.30961   1.31448   1.32088   1.32518
 Alpha virt. eigenvalues --    1.33121   1.33245   1.33316   1.33825   1.33829
 Alpha virt. eigenvalues --    1.34005   1.34234   1.34338   1.34920   1.35023
 Alpha virt. eigenvalues --    1.35419   1.35540   1.35923   1.36526   1.37162
 Alpha virt. eigenvalues --    1.37298   1.37387   1.37755   1.38199   1.38621
 Alpha virt. eigenvalues --    1.38847   1.39692   1.40831   1.41367   1.41796
 Alpha virt. eigenvalues --    1.42502   1.43943   1.44433   1.44712   1.45015
 Alpha virt. eigenvalues --    1.46685   1.46847   1.49348   1.50662   1.51730
 Alpha virt. eigenvalues --    1.51829   1.53715   1.53982   1.54141   1.54401
 Alpha virt. eigenvalues --    1.57636   1.58254   1.59722   1.60391   1.60412
 Alpha virt. eigenvalues --    1.62684   1.64434   1.64468   1.65228   1.66930
 Alpha virt. eigenvalues --    1.67822   1.69008   1.69880   1.70354   1.70405
 Alpha virt. eigenvalues --    1.70799   1.71143   1.71427   1.71611   1.72439
 Alpha virt. eigenvalues --    1.72585   1.73266   1.73709   1.73793   1.74348
 Alpha virt. eigenvalues --    1.74408   1.74813   1.77621   1.77770   1.79271
 Alpha virt. eigenvalues --    1.79410   1.80914   1.80973   1.82965   1.83110
 Alpha virt. eigenvalues --    1.83407   1.83919   1.84103   1.84278   1.84331
 Alpha virt. eigenvalues --    1.85453   1.85768   1.85937   1.86260   1.86417
 Alpha virt. eigenvalues --    1.86844   1.87909   1.88283   1.88901   1.89546
 Alpha virt. eigenvalues --    1.89663   1.89819   1.89971   1.90401   1.90673
 Alpha virt. eigenvalues --    1.90743   1.91246   1.91463   1.91908   1.92056
 Alpha virt. eigenvalues --    1.92240   1.92647   1.92703   1.93025   1.93253
 Alpha virt. eigenvalues --    1.93542   1.94033   1.94638   1.94956   1.95597
 Alpha virt. eigenvalues --    1.95690   1.96635   1.96760   1.97725   1.97791
 Alpha virt. eigenvalues --    1.97888   1.99436   1.99577   1.99969   2.00429
 Alpha virt. eigenvalues --    2.02192   2.02471   2.02548   2.03548   2.03604
 Alpha virt. eigenvalues --    2.04186   2.04415   2.04790   2.04896   2.05943
 Alpha virt. eigenvalues --    2.06106   2.09945   2.11617   2.11670   2.14202
 Alpha virt. eigenvalues --    2.18832   2.18989   2.19164   2.19185   2.20950
 Alpha virt. eigenvalues --    2.20980   2.21250   2.21307   2.21583   2.21852
 Alpha virt. eigenvalues --    2.22466   2.22554   2.25263   2.25333   2.26756
 Alpha virt. eigenvalues --    2.26763   2.27796   2.27796   2.27972   2.28019
 Alpha virt. eigenvalues --    2.29364   2.29367   2.29476   2.29699   2.29781
 Alpha virt. eigenvalues --    2.30302   2.30705   2.30951   2.31107   2.31287
 Alpha virt. eigenvalues --    2.32780   2.32856   2.33033   2.33040   2.35465
 Alpha virt. eigenvalues --    2.35548   2.35780   2.35801   2.37635   2.38375
 Alpha virt. eigenvalues --    2.38725   2.38767   2.39264   2.39367   2.39637
 Alpha virt. eigenvalues --    2.40117   2.40450   2.42019   2.42357   2.43121
 Alpha virt. eigenvalues --    2.43213   2.43237   2.43678   2.43942   2.44269
 Alpha virt. eigenvalues --    2.44562   2.44606   2.44658   2.46129   2.46775
 Alpha virt. eigenvalues --    2.47028   2.47067   2.48428   2.48496   2.48917
 Alpha virt. eigenvalues --    2.49200   2.49689   2.49974   2.50634   2.50939
 Alpha virt. eigenvalues --    2.51194   2.52248   2.52374   2.52581   2.53122
 Alpha virt. eigenvalues --    2.53500   2.53609   2.54138   2.54311   2.54359
 Alpha virt. eigenvalues --    2.54566   2.55025   2.55418   2.55722   2.55743
 Alpha virt. eigenvalues --    2.56919   2.57813   2.58191   2.59234   2.60142
 Alpha virt. eigenvalues --    2.60519   2.60738   2.61751   2.61922   2.63281
 Alpha virt. eigenvalues --    2.63286   2.63359   2.63613   2.64661   2.66556
 Alpha virt. eigenvalues --    2.67205   2.67464   2.68123   2.68134   2.68966
 Alpha virt. eigenvalues --    2.71159   2.72084   2.72210   2.72528   2.72893
 Alpha virt. eigenvalues --    2.73559   2.82951   2.85620   2.85636   2.85985
 Alpha virt. eigenvalues --    2.86074   2.88827   2.89636   2.92204   2.92204
 Alpha virt. eigenvalues --    2.94758   2.95189   2.95653   2.96165   2.98956
 Alpha virt. eigenvalues --    3.03743   3.07614   3.08210   3.09051   3.09334
 Alpha virt. eigenvalues --    3.09801   3.10712   3.11039   3.13510   3.13529
 Alpha virt. eigenvalues --    3.13895   3.13920   3.14506   3.15051   3.15666
 Alpha virt. eigenvalues --    3.15871   3.16351   3.16603   3.16906   3.18578
 Alpha virt. eigenvalues --    3.18621   3.21274   3.21294   3.21593   3.21595
 Alpha virt. eigenvalues --    3.23424   3.23729   3.30769   3.30966   3.31834
 Alpha virt. eigenvalues --    3.31844   3.37322   3.37419   3.41195   3.41369
 Alpha virt. eigenvalues --    3.41636   3.41973   3.71555   3.71694   3.76619
 Alpha virt. eigenvalues --    3.76677   3.77283   3.77317   4.02001   5.82502
 Alpha virt. eigenvalues --    5.90487  34.68779  34.71039  35.04443  46.05027
 Alpha virt. eigenvalues --   68.61642  68.78935  68.82148  88.48840
          Condensed to atoms (all electrons):
 Mulliken charges:
               1
     1  Ru  -0.398381
     2  Zn   0.078287
     3  P    0.133011
     4  P    0.133023
     5  O   -0.276804
     6  O   -0.276808
     7  C    0.235347
     8  C    0.235359
     9  C    0.070841
    10  C   -0.050105
    11  C   -0.101939
    12  H    0.101245
    13  C   -0.119077
    14  H    0.105436
    15  C   -0.096500
    16  H    0.103807
    17  C   -0.159179
    18  H    0.104523
    19  C    0.070842
    20  C   -0.159176
    21  H    0.104523
    22  C   -0.096503
    23  H    0.103806
    24  C   -0.119075
    25  H    0.105436
    26  C   -0.101944
    27  H    0.101254
    28  C   -0.050098
    29  C    0.005473
    30  C   -0.119183
    31  H    0.122540
    32  C   -0.105837
    33  H    0.113997
    34  C   -0.101400
    35  H    0.112339
    36  C   -0.106822
    37  H    0.113722
    38  C   -0.113015
    39  H    0.130138
    40  C    0.015303
    41  C   -0.122210
    42  H    0.121405
    43  C   -0.109863
    44  H    0.114110
    45  C   -0.101116
    46  H    0.113944
    47  C   -0.106597
    48  H    0.116860
    49  C   -0.111725
    50  H    0.127371
    51  C    0.005460
    52  C   -0.119181
    53  H    0.122542
    54  C   -0.105836
    55  H    0.113998
    56  C   -0.101402
    57  H    0.112339
    58  C   -0.106819
    59  H    0.113723
    60  C   -0.113016
    61  H    0.130139
    62  C    0.015297
    63  C   -0.122211
    64  H    0.121403
    65  C   -0.109862
    66  H    0.114108
    67  C   -0.101118
    68  H    0.113944
    69  C   -0.106597
    70  H    0.116859
    71  C   -0.111729
    72  H    0.127373
 Sum of Mulliken charges =   0.00000
 Mulliken charges with hydrogens summed into heavy atoms:
               1
     1  Ru  -0.398381
     2  Zn   0.078287
     3  P    0.133011
     4  P    0.133023
     5  O   -0.276804
     6  O   -0.276808
     7  C    0.235347
     8  C    0.235359
     9  C    0.070841
    10  C   -0.050105
    11  C   -0.000694
    13  C   -0.013642
    15  C    0.007307
    17  C   -0.054656
    19  C    0.070842
    20  C   -0.054653
    22  C    0.007303
    24  C   -0.013639
    26  C   -0.000690
    28  C   -0.050098
    29  C    0.005473
    30  C    0.003357
    32  C    0.008160
    34  C    0.010939
    36  C    0.006900
    38  C    0.017124
    40  C    0.015303
    41  C   -0.000805
    43  C    0.004246
    45  C    0.012828
    47  C    0.010263
    49  C    0.015646
    51  C    0.005460
    52  C    0.003361
    54  C    0.008163
    56  C    0.010937
    58  C    0.006904
    60  C    0.017123
    62  C    0.015297
    63  C   -0.000807
    65  C    0.004247
    67  C    0.012826
    69  C    0.010262
    71  C    0.015644
 Electronic spatial extent (au):  <R**2>=          24295.4704
 Charge=              0.0000 electrons
 Dipole moment (field-independent basis, Debye):
    X=              0.0001    Y=             -3.3425    Z=              0.0011  Tot=              3.3425
 Quadrupole moment (field-independent basis, Debye-Ang):
   XX=           -240.6076   YY=           -265.3358   ZZ=           -276.3919
   XY=              0.0025   XZ=              5.2202   YZ=             -0.0035
 Traceless Quadrupole moment (field-independent basis, Debye-Ang):
   XX=             20.1708   YY=             -4.5573   ZZ=            -15.6134
   XY=              0.0025   XZ=              5.2202   YZ=             -0.0035
 Octapole moment (field-independent basis, Debye-Ang**2):
  XXX=              0.0138  YYY=             66.5014  ZZZ=              0.0850  XYY=              0.0115
  XXY=            -26.7051  XXZ=              0.0070  XZZ=             -0.0170  YZZ=            -67.9310
  YYZ=             -0.0812  XYZ=             19.9162
 Hexadecapole moment (field-independent basis, Debye-Ang**3):
 XXXX=         -17880.8291 YYYY=          -7095.6365 ZZZZ=          -7038.5985 XXXY=              0.0207
 XXXZ=            -35.9461 YYYX=             -0.2495 YYYZ=              0.1899 ZZZX=            391.5444
 ZZZY=             -0.2454 XXYY=          -4024.0902 XXZZ=          -3916.1781 YYZZ=          -2185.3835
 XXYZ=              0.0249 YYXZ=           -226.1871 ZZXY=              0.3199
 N-N= 5.478654111475D+03 E-N=-1.549202020385D+04  KE= 1.793798915477D+03
 No NMR shielding tensors so no spin-rotation constants.
 Leave Link  601 at Sat Apr 11 14:25:51 2020, MaxMem=  1879048192 cpu:         6.1
 (Enter /home/programs/G09_D/g09/l9999.exe)
 1\1\GINC-COMP12\SP\RBP86\Gen\C38H28O2P2Ru1Zn1\STUART\11-Apr-2020\0\\#p
  bp86 gen pseudo=read int=grid=ultrafine scrf=(pcm,solvent=benzene)\\R
 u (PPh3)3 H4 from high temp MD\\0,1\Ru,0,0.,-0.55031,0.00025\Zn,0,0.00
 002,2.06958,-0.00069\P,0,2.36563,-0.30195,-0.05785\P,0,-2.36563,-0.301
 88,0.05811\O,0,0.06442,0.31185,2.958\O,0,-0.06438,0.30948,-2.95822\C,0
 ,0.04001,-0.11285,1.86083\C,0,-0.03999,-0.11423,-1.86066\C,0,1.87202,2
 .4575,-0.54222\C,0,2.8359,1.41362,-0.64627\C,0,4.13363,1.65024,-1.1492
 3\H,0,4.852,0.82787,-1.23958\C,0,4.50711,2.9413,-1.55247\H,0,5.51202,3
 .11978,-1.9503\C,0,3.58495,3.99413,-1.44729\H,0,3.8685,5.00502,-1.7626
 6\C,0,2.29421,3.74704,-0.94925\H,0,1.58997,4.58624,-0.88989\C,0,-1.872
 01,2.45792,0.54045\C,0,-2.2942,3.74777,0.9465\H,0,-1.58994,4.58692,0.8
 8659\C,0,-3.58498,3.99525,1.44425\H,0,-3.86854,5.00638,1.75885\C,0,-4.
 50718,2.94252,1.55012\H,0,-5.51212,3.12132,1.94773\C,0,-4.13369,1.6511
 6,1.14786\H,0,-4.85208,0.82888,1.23876\C,0,-2.83591,1.41414,0.6452\C,0
 ,3.22307,-0.47741,1.59172\C,0,3.9984,0.55023,2.16185\H,0,4.13369,1.493
 43,1.62412\C,0,4.59516,0.36756,3.42208\H,0,5.19089,1.17577,3.85948\C,0
 ,4.42823,-0.8396,4.1165\H,0,4.89367,-0.97836,5.09793\C,0,3.6556,-1.869
 43,3.55127\H,0,3.51735,-2.81302,4.08974\C,0,3.05129,-1.6875,2.29978\H,
 0,2.43778,-2.48734,1.86864\C,0,3.35815,-1.49177,-1.10974\C,0,4.69763,-
 1.81624,-0.80004\H,0,5.17279,-1.38458,0.08666\C,0,5.42133,-2.70128,-1.
 61488\H,0,6.45935,-2.94317,-1.36268\C,0,4.81677,-3.2779,-2.7436\H,0,5.
 38157,-3.97115,-3.3757\C,0,3.48254,-2.9691,-3.05264\H,0,3.0002,-3.4212
 2,-3.92566\C,0,2.75593,-2.08551,-2.23909\H,0,1.71262,-1.86046,-2.47862
 \C,0,-3.22299,-0.4786,-1.59136\C,0,-3.99828,0.54862,-2.16232\H,0,-4.13
 36,1.49222,-1.62531\C,0,-4.59496,0.365,-3.42245\H,0,-5.19065,1.17288,-
 3.8605\C,0,-4.42798,-0.84269,-4.11595\H,0,-4.89336,-0.98219,-5.0973\C,
 0,-3.6554,-1.8721,-3.54989\H,0,-3.51712,-2.81609,-4.08764\C,0,-3.05117
 ,-1.68922,-2.2985\H,0,-2.43769,-2.48874,-1.86672\C,0,-3.35824,-1.49089
 ,1.11085\C,0,-4.69761,-1.8158,0.80115\H,0,-5.17262,-1.38499,-0.08605\C
 ,0,-5.42138,-2.7002,1.61661\H,0,-6.45931,-2.94245,1.3644\C,0,-4.817,-3
 .27575,2.74598\H,0,-5.38185,-3.96851,3.37857\C,0,-3.48286,-2.96653,3.0
 5502\H,0,-3.00067,-3.41782,3.92855\C,0,-2.75618,-2.08358,2.24084\H,0,-
 1.71295,-1.85821,2.4804\\Version=EM64L-G09RevD.01\State=1-A\HF=-1950.8
 637802\RMSD=1.282e-09\Dipole=0.0000266,-1.3150461,0.000419\Quadrupole=
 14.9964791,-3.3882782,-11.6082009,0.0018946,3.8811228,-0.0025777\PG=C0
 1 [X(C38H28O2P2Ru1Zn1)]\\@


 THOSE WHO TRY TO PASS CHEMISTRY OFF AS A NEW SCIENCE
 SHOW HOW LITTLE KNOWLEDGE THEY HAVE OF THE CHARACTER
 AND LITERATURE OF THE ANCIENTS.
   -- NICOLAS LEFEVRE
 "COURS DE CHYMIE" J.-N.LELOUP, PARIS, 1751
 Job cpu time:       0 days  1 hours 28 minutes  1.0 seconds.
 File lengths (MBytes):  RWF=    821 Int=      0 D2E=      0 Chk=     25 Scr=      1
 Normal termination of Gaussian 09 at Sat Apr 11 14:25:51 2020.
