 Entering Gaussian System, Link 0=g09
 Input=co.com
 Output=co.log
 Initial command:
 /home/programs/G09_D/g09/l1.exe "/state/partition1/stuart_2020-04-12-1035_14436/Gau-25925.inp" -scrdir="/state/partition1/stuart_2020-04-12-1035_14436/"
 Entering Link 1 = /home/programs/G09_D/g09/l1.exe PID=     25926.
  
 Copyright (c) 1988,1990,1992,1993,1995,1998,2003,2009,2013,
            Gaussian, Inc.  All Rights Reserved.
  
 This is part of the Gaussian(R) 09 program.  It is based on
 the Gaussian(R) 03 system (copyright 2003, Gaussian, Inc.),
 the Gaussian(R) 98 system (copyright 1998, Gaussian, Inc.),
 the Gaussian(R) 94 system (copyright 1995, Gaussian, Inc.),
 the Gaussian 92(TM) system (copyright 1992, Gaussian, Inc.),
 the Gaussian 90(TM) system (copyright 1990, Gaussian, Inc.),
 the Gaussian 88(TM) system (copyright 1988, Gaussian, Inc.),
 the Gaussian 86(TM) system (copyright 1986, Carnegie Mellon
 University), and the Gaussian 82(TM) system (copyright 1983,
 Carnegie Mellon University). Gaussian is a federally registered
 trademark of Gaussian, Inc.
  
 This software contains proprietary and confidential information,
 including trade secrets, belonging to Gaussian, Inc.
  
 This software is provided under written license and may be
 used, copied, transmitted, or stored only in accord with that
 written license.
  
 The following legend is applicable only to US Government
 contracts under FAR:
  
                    RESTRICTED RIGHTS LEGEND
  
 Use, reproduction and disclosure by the US Government is
 subject to restrictions as set forth in subparagraphs (a)
 and (c) of the Commercial Computer Software - Restricted
 Rights clause in FAR 52.227-19.
  
 Gaussian, Inc.
 340 Quinnipiac St., Bldg. 40, Wallingford CT 06492
  
  
 ---------------------------------------------------------------
 Warning -- This program may not be used in any manner that
 competes with the business of Gaussian, Inc. or will provide
 assistance to any competitor of Gaussian, Inc.  The licensee
 of this program is prohibited from giving any competitor of
 Gaussian, Inc. access to this program.  By using this program,
 the user acknowledges that Gaussian, Inc. is engaged in the
 business of creating and licensing software in the field of
 computational chemistry and represents and warrants to the
 licensee that it is not a competitor of Gaussian, Inc. and that
 it will not use this program in any manner prohibited above.
 ---------------------------------------------------------------
  

 Cite this work as:
 Gaussian 09, Revision D.01,
 M. J. Frisch, G. W. Trucks, H. B. Schlegel, G. E. Scuseria, 
 M. A. Robb, J. R. Cheeseman, G. Scalmani, V. Barone, B. Mennucci, 
 G. A. Petersson, H. Nakatsuji, M. Caricato, X. Li, H. P. Hratchian, 
 A. F. Izmaylov, J. Bloino, G. Zheng, J. L. Sonnenberg, M. Hada, 
 M. Ehara, K. Toyota, R. Fukuda, J. Hasegawa, M. Ishida, T. Nakajima, 
 Y. Honda, O. Kitao, H. Nakai, T. Vreven, J. A. Montgomery, Jr., 
 J. E. Peralta, F. Ogliaro, M. Bearpark, J. J. Heyd, E. Brothers, 
 K. N. Kudin, V. N. Staroverov, T. Keith, R. Kobayashi, J. Normand, 
 K. Raghavachari, A. Rendell, J. C. Burant, S. S. Iyengar, J. Tomasi, 
 M. Cossi, N. Rega, J. M. Millam, M. Klene, J. E. Knox, J. B. Cross, 
 V. Bakken, C. Adamo, J. Jaramillo, R. Gomperts, R. E. Stratmann, 
 O. Yazyev, A. J. Austin, R. Cammi, C. Pomelli, J. W. Ochterski, 
 R. L. Martin, K. Morokuma, V. G. Zakrzewski, G. A. Voth, 
 P. Salvador, J. J. Dannenberg, S. Dapprich, A. D. Daniels, 
 O. Farkas, J. B. Foresman, J. V. Ortiz, J. Cioslowski, 
 and D. J. Fox, Gaussian, Inc., Wallingford CT, 2013.
 
 ******************************************
 Gaussian 09:  EM64L-G09RevD.01 24-Apr-2013
                12-Apr-2020 
 ******************************************
 %nproc=8
 Will use up to    8 processors via shared memory.
 %mem=14Gb
 --------------------------------------------------------------
 #p bp86 opt IOp(1/19=11) gen int=(grid=ultrafine) freq=noraman
 --------------------------------------------------------------
 1/14=-1,18=20,19=11,26=4,38=1/1,3;
 2/9=110,12=2,17=6,18=5,40=1/2;
 3/5=7,11=2,16=1,25=1,30=1,71=1,74=404,75=-5/1,2,3;
 4//1;
 5/5=2,38=5/2;
 6/7=2,8=2,9=2,10=2,28=1/1;
 7//1,2,3,16;
 1/14=-1,18=20,19=11,26=4/3(2);
 2/9=110/2;
 99//99;
 2/9=110/2;
 3/5=7,6=1,11=2,16=1,25=1,30=1,71=1,74=404,75=-5,82=7/1,2,3;
 4/5=5,16=3,69=1/1;
 5/5=2,38=5/2;
 7//1,2,3,16;
 1/14=-1,18=20,19=11,26=4/3(-5);
 2/9=110/2;
 6/7=2,8=2,9=2,10=2,19=2,28=1/1;
 99/9=1/99;
 Leave Link    1 at Sun Apr 12 10:35:17 2020, MaxMem=  1879048192 cpu:         0.4
 (Enter /home/programs/G09_D/g09/l101.exe)
 ---
 Rab
 ---
 Symbolic Z-matrix:
 Charge =  0 Multiplicity = 1
 C
 O                    1     1.13 
 
 NAtoms=      2 NQM=        2 NQMF=       0 NMMI=      0 NMMIF=      0
                NMic=       0 NMicF=      0.
                    Isotopes and Nuclear Properties:
 (Nuclear quadrupole moments (NQMom) in fm**2, nuclear magnetic moments (NMagM)
  in nuclear magnetons)

  Atom         1           2
 IAtWgt=          12          16
 AtmWgt=  12.0000000  15.9949146
 NucSpn=           0           0
 AtZEff=   0.0000000   0.0000000
 NQMom=    0.0000000   0.0000000
 NMagM=    0.0000000   0.0000000
 AtZNuc=   6.0000000   8.0000000
 Leave Link  101 at Sun Apr 12 10:35:17 2020, MaxMem=  1879048192 cpu:         2.4
 (Enter /home/programs/G09_D/g09/l103.exe)

 GradGradGradGradGradGradGradGradGradGradGradGradGradGradGradGradGradGrad
 Berny optimization.
 Initialization pass.
                           ----------------------------
                           !    Initial Parameters    !
                           ! (Angstroms and Degrees)  !
 --------------------------                            --------------------------
 ! Name  Definition              Value          Derivative Info.                !
 --------------------------------------------------------------------------------
 ! R1    R(1,2)                  1.13           estimate D2E/DX2                !
 --------------------------------------------------------------------------------
 Trust Radius=3.00D-01 FncErr=1.00D-07 GrdErr=1.00D-06
 Number of steps in this run=     20 maximum allowed number of steps=    100.
 GradGradGradGradGradGradGradGradGradGradGradGradGradGradGradGradGradGrad

 Leave Link  103 at Sun Apr 12 10:35:18 2020, MaxMem=  1879048192 cpu:         0.0
 (Enter /home/programs/G09_D/g09/l202.exe)
                          Input orientation:                          
 ---------------------------------------------------------------------
 Center     Atomic      Atomic             Coordinates (Angstroms)
 Number     Number       Type             X           Y           Z
 ---------------------------------------------------------------------
      1          6           0        0.000000    0.000000    0.000000
      2          8           0        0.000000    0.000000    1.130000
 ---------------------------------------------------------------------
 Stoichiometry    CO
 Framework group  C*V[C*(CO)]
 Deg. of freedom     1
 Full point group                 C*V     NOp   4
 Largest Abelian subgroup         C2V     NOp   4
 Largest concise Abelian subgroup C1      NOp   1
                         Standard orientation:                         
 ---------------------------------------------------------------------
 Center     Atomic      Atomic             Coordinates (Angstroms)
 Number     Number       Type             X           Y           Z
 ---------------------------------------------------------------------
      1          6           0        0.000000    0.000000   -0.645714
      2          8           0        0.000000    0.000000    0.484286
 ---------------------------------------------------------------------
 Rotational constants (GHZ):      0.0000000     57.7266405     57.7266405
 Leave Link  202 at Sun Apr 12 10:35:18 2020, MaxMem=  1879048192 cpu:         0.1
 (Enter /home/programs/G09_D/g09/l301.exe)
 General basis read from cards:  (5D, 7F)
 Centers:       1      2
 6-31g**
 *****
 Ernie: Thresh=  0.10000D-02 Tol=  0.10000D-05 Strict=F.
 There are    16 symmetry adapted cartesian basis functions of A1  symmetry.
 There are     2 symmetry adapted cartesian basis functions of A2  symmetry.
 There are     6 symmetry adapted cartesian basis functions of B1  symmetry.
 There are     6 symmetry adapted cartesian basis functions of B2  symmetry.
 There are    14 symmetry adapted basis functions of A1  symmetry.
 There are     2 symmetry adapted basis functions of A2  symmetry.
 There are     6 symmetry adapted basis functions of B1  symmetry.
 There are     6 symmetry adapted basis functions of B2  symmetry.
    28 basis functions,    56 primitive gaussians,    30 cartesian basis functions
     7 alpha electrons        7 beta electrons
       nuclear repulsion energy        22.4783239047 Hartrees.
 IExCor=  404 DFT=T Ex=B Corr=P86 ExCW=0 ScaHFX=  0.000000
 ScaDFX=  1.000000  1.000000  1.000000  1.000000 ScalE2=  1.000000  1.000000
 IRadAn=      5 IRanWt=     -1 IRanGd=            0 ICorTp=0 IEmpDi=  4
 NAtoms=    2 NActive=    2 NUniq=    2 SFac= 1.00D+00 NAtFMM=   60 NAOKFM=F Big=F
 Integral buffers will be    131072 words long.
 Raffenetti 2 integral format.
 Two-electron integral symmetry is turned on.
 Leave Link  301 at Sun Apr 12 10:35:18 2020, MaxMem=  1879048192 cpu:         0.4
 (Enter /home/programs/G09_D/g09/l302.exe)
 NPDir=0 NMtPBC=     1 NCelOv=     1 NCel=       1 NClECP=     1 NCelD=      1
         NCelK=      1 NCelE2=     1 NClLst=     1 CellRange=     0.0.
 One-electron integrals computed using PRISM.
 NBasis=    28 RedAO= T EigKep=  3.04D-02  NBF=    14     2     6     6
 NBsUse=    28 1.00D-06 EigRej= -1.00D+00 NBFU=    14     2     6     6
 Precomputing XC quadrature grid using
 IXCGrd= 4 IRadAn=           5 IRanWt=          -1 IRanGd=           0 AccXCQ= 0.00D+00.
 Generated NRdTot=       0 NPtTot=           0 NUsed=           0 NTot=          32
 NSgBfM=    30    30    30    30    30 MxSgAt=     2 MxSgA2=     2.
 Leave Link  302 at Sun Apr 12 10:35:19 2020, MaxMem=  1879048192 cpu:         1.3
 (Enter /home/programs/G09_D/g09/l303.exe)
 DipDrv:  MaxL=1.
 Leave Link  303 at Sun Apr 12 10:35:19 2020, MaxMem=  1879048192 cpu:         0.2
 (Enter /home/programs/G09_D/g09/l401.exe)
 ExpMin= 1.69D-01 ExpMax= 5.48D+03 ExpMxC= 8.25D+02 IAcc=3 IRadAn=         5 AccDes= 0.00D+00
 Harris functional with IExCor=  404 and IRadAn=       5 diagonalized for initial guess.
 HarFok:  IExCor=  404 AccDes= 0.00D+00 IRadAn=         5 IDoV= 1 UseB2=F ITyADJ=14
 ICtDFT=  3500011 ScaDFX=  1.000000  1.000000  1.000000  1.000000
 FoFCou: FMM=F IPFlag=           0 FMFlag=      100000 FMFlg1=           0
         NFxFlg=           0 DoJE=T BraDBF=F KetDBF=T FulRan=T
         wScrn=  0.000000 ICntrl=     500 IOpCl=  0 I1Cent=   200000004 NGrid=           0
         NMat0=    1 NMatS0=      1 NMatT0=    0 NMatD0=    1 NMtDS0=    0 NMtDT0=    0
 Petite list used in FoFCou.
 Harris En= -113.300922727963    
 JPrj=0 DoOrth=F DoCkMO=F.
 Initial guess orbital symmetries:
       Occupied  (SG) (SG) (SG) (SG) (PI) (PI) (SG)
       Virtual   (PI) (PI) (SG) (PI) (PI) (SG) (SG) (SG) (PI) (PI)
                 (DLTA) (DLTA) (SG) (PI) (PI) (DLTA) (DLTA) (SG)
                 (PI) (PI) (SG)
 The electronic state of the initial guess is 1-SG.
 Leave Link  401 at Sun Apr 12 10:35:20 2020, MaxMem=  1879048192 cpu:         1.2
 (Enter /home/programs/G09_D/g09/l502.exe)
 Closed shell SCF:
 Using DIIS extrapolation, IDIIS=  1040.
 Integral symmetry usage will be decided dynamically.
 Keep J ints in memory in symmetry-blocked form, NReq=968469.
 IVT=       21746 IEndB=       21746 NGot=  1879048192 MDV=  1879001938
 LenX=  1879001938 LenY=  1879000597
 Requested convergence on RMS density matrix=1.00D-08 within 128 cycles.
 Requested convergence on MAX density matrix=1.00D-06.
 Requested convergence on             energy=1.00D-06.
 No special actions if energy rises.
 FoFCou: FMM=F IPFlag=           0 FMFlag=           0 FMFlg1=           0
         NFxFlg=           0 DoJE=F BraDBF=F KetDBF=F FulRan=T
         wScrn=  0.000000 ICntrl=     600 IOpCl=  0 I1Cent=           0 NGrid=           0
         NMat0=    1 NMatS0=    406 NMatT0=    0 NMatD0=    1 NMtDS0=    0 NMtDT0=    0
 Petite list used in FoFCou.
 Integral accuracy reduced to 1.0D-05 until final iterations.

 Cycle   1  Pass 0  IDiag  1:
 E= -113.288791083956    
 DIIS: error= 2.54D-02 at cycle   1 NSaved=   1.
 NSaved= 1 IEnMin= 1 EnMin= -113.288791083956     IErMin= 1 ErrMin= 2.54D-02
 ErrMax= 2.54D-02  0.00D+00 EMaxC= 1.00D-01 BMatC= 2.10D-02 BMatP= 2.10D-02
 IDIUse=3 WtCom= 7.46D-01 WtEn= 2.54D-01
 Coeff-Com:  0.100D+01
 Coeff-En:   0.100D+01
 Coeff:      0.100D+01
 Gap=     0.282 Goal=   None    Shift=    0.000
 GapD=    0.282 DampG=1.000 DampE=0.500 DampFc=0.5000 IDamp=-1.
 Damping current iteration by 5.00D-01
 RMSDP=9.44D-03 MaxDP=1.17D-01              OVMax= 1.63D-01

 Cycle   2  Pass 0  IDiag  1:
 E= -113.274202895659     Delta-E=        0.014588188297 Rises=F Damp=T
 DIIS: error= 3.24D-02 at cycle   2 NSaved=   2.
 NSaved= 2 IEnMin= 1 EnMin= -113.288791083956     IErMin= 1 ErrMin= 2.54D-02
 ErrMax= 3.24D-02  0.00D+00 EMaxC= 1.00D-01 BMatC= 1.98D-02 BMatP= 2.10D-02
 IDIUse=3 WtCom= 6.76D-01 WtEn= 3.24D-01
 Coeff-Com:  0.492D+00 0.508D+00
 Coeff-En:   0.673D+00 0.327D+00
 Coeff:      0.551D+00 0.449D+00
 Gap=     0.263 Goal=   None    Shift=    0.000
 RMSDP=3.78D-03 MaxDP=5.36D-02 DE= 1.46D-02 OVMax= 1.23D-01

 Cycle   3  Pass 0  IDiag  1:
 E= -113.303667657077     Delta-E=       -0.029464761418 Rises=F Damp=F
 DIIS: error= 5.74D-03 at cycle   3 NSaved=   3.
 NSaved= 3 IEnMin= 3 EnMin= -113.303667657077     IErMin= 3 ErrMin= 5.74D-03
 ErrMax= 5.74D-03  0.00D+00 EMaxC= 1.00D-01 BMatC= 7.68D-04 BMatP= 1.98D-02
 IDIUse=3 WtCom= 9.43D-01 WtEn= 5.74D-02
 Coeff-Com:  0.207D+00 0.127D+00 0.666D+00
 Coeff-En:   0.000D+00 0.000D+00 0.100D+01
 Coeff:      0.196D+00 0.120D+00 0.685D+00
 Gap=     0.262 Goal=   None    Shift=    0.000
 RMSDP=1.22D-03 MaxDP=2.03D-02 DE=-2.95D-02 OVMax= 7.92D-03

 Cycle   4  Pass 0  IDiag  1:
 E= -113.304324818472     Delta-E=       -0.000657161396 Rises=F Damp=F
 DIIS: error= 4.73D-04 at cycle   4 NSaved=   4.
 NSaved= 4 IEnMin= 4 EnMin= -113.304324818472     IErMin= 4 ErrMin= 4.73D-04
 ErrMax= 4.73D-04  0.00D+00 EMaxC= 1.00D-01 BMatC= 9.99D-06 BMatP= 7.68D-04
 IDIUse=3 WtCom= 9.95D-01 WtEn= 4.73D-03
 Coeff-Com:  0.212D-01 0.213D-02 0.149D+00 0.827D+00
 Coeff-En:   0.000D+00 0.000D+00 0.000D+00 0.100D+01
 Coeff:      0.211D-01 0.212D-02 0.149D+00 0.828D+00
 Gap=     0.262 Goal=   None    Shift=    0.000
 RMSDP=1.16D-04 MaxDP=9.52D-04 DE=-6.57D-04 OVMax= 1.05D-03

 Cycle   5  Pass 0  IDiag  1:
 E= -113.304335091204     Delta-E=       -0.000010272732 Rises=F Damp=F
 DIIS: error= 1.48D-04 at cycle   5 NSaved=   5.
 NSaved= 5 IEnMin= 5 EnMin= -113.304335091204     IErMin= 5 ErrMin= 1.48D-04
 ErrMax= 1.48D-04  0.00D+00 EMaxC= 1.00D-01 BMatC= 6.22D-07 BMatP= 9.99D-06
 IDIUse=3 WtCom= 9.99D-01 WtEn= 1.48D-03
 Coeff-Com:  0.490D-02-0.308D-02 0.329D-01 0.219D+00 0.746D+00
 Coeff-En:   0.000D+00 0.000D+00 0.000D+00 0.000D+00 0.100D+01
 Coeff:      0.489D-02-0.307D-02 0.329D-01 0.219D+00 0.746D+00
 Gap=     0.262 Goal=   None    Shift=    0.000
 RMSDP=2.49D-05 MaxDP=3.60D-04 DE=-1.03D-05 OVMax= 2.10D-04

 Cycle   6  Pass 0  IDiag  1:
 E= -113.304335623645     Delta-E=       -0.000000532441 Rises=F Damp=F
 DIIS: error= 2.12D-05 at cycle   6 NSaved=   6.
 NSaved= 6 IEnMin= 6 EnMin= -113.304335623645     IErMin= 6 ErrMin= 2.12D-05
 ErrMax= 2.12D-05  0.00D+00 EMaxC= 1.00D-01 BMatC= 8.27D-09 BMatP= 6.22D-07
 IDIUse=1 WtCom= 1.00D+00 WtEn= 0.00D+00
 Coeff-Com:  0.759D-03-0.833D-03 0.395D-02 0.283D-01 0.104D+00 0.864D+00
 Coeff:      0.759D-03-0.833D-03 0.395D-02 0.283D-01 0.104D+00 0.864D+00
 Gap=     0.262 Goal=   None    Shift=    0.000
 RMSDP=1.76D-06 MaxDP=1.83D-05 DE=-5.32D-07 OVMax= 2.83D-05

 Initial convergence to 1.0D-05 achieved.  Increase integral accuracy.
 Cycle   7  Pass 1  IDiag  1:
 E= -113.304332591955     Delta-E=        0.000003031690 Rises=F Damp=F
 DIIS: error= 1.23D-06 at cycle   1 NSaved=   1.
 NSaved= 1 IEnMin= 1 EnMin= -113.304332591955     IErMin= 1 ErrMin= 1.23D-06
 ErrMax= 1.23D-06  0.00D+00 EMaxC= 1.00D-01 BMatC= 4.85D-11 BMatP= 4.85D-11
 IDIUse=1 WtCom= 1.00D+00 WtEn= 0.00D+00
 Coeff-Com:  0.100D+01
 Coeff:      0.100D+01
 Gap=     0.262 Goal=   None    Shift=    0.000
 RMSDP=1.76D-06 MaxDP=1.83D-05 DE= 3.03D-06 OVMax= 6.45D-06

 Cycle   8  Pass 1  IDiag  1:
 E= -113.304332591823     Delta-E=        0.000000000132 Rises=F Damp=F
 DIIS: error= 3.39D-06 at cycle   2 NSaved=   2.
 NSaved= 2 IEnMin= 1 EnMin= -113.304332591955     IErMin= 1 ErrMin= 1.23D-06
 ErrMax= 3.39D-06  0.00D+00 EMaxC= 1.00D-01 BMatC= 2.31D-10 BMatP= 4.85D-11
 IDIUse=1 WtCom= 1.00D+00 WtEn= 0.00D+00
 Coeff-Com:  0.715D+00 0.285D+00
 Coeff:      0.715D+00 0.285D+00
 Gap=     0.262 Goal=   None    Shift=    0.000
 RMSDP=3.40D-07 MaxDP=3.56D-06 DE= 1.32D-10 OVMax= 5.57D-06

 Cycle   9  Pass 1  IDiag  1:
 E= -113.304332591997     Delta-E=       -0.000000000174 Rises=F Damp=F
 DIIS: error= 6.03D-07 at cycle   3 NSaved=   3.
 NSaved= 3 IEnMin= 3 EnMin= -113.304332591997     IErMin= 3 ErrMin= 6.03D-07
 ErrMax= 6.03D-07  0.00D+00 EMaxC= 1.00D-01 BMatC= 7.22D-12 BMatP= 4.85D-11
 IDIUse=1 WtCom= 1.00D+00 WtEn= 0.00D+00
 Coeff-Com:  0.214D-01 0.151D+00 0.828D+00
 Coeff:      0.214D-01 0.151D+00 0.828D+00
 Gap=     0.262 Goal=   None    Shift=    0.000
 RMSDP=4.88D-08 MaxDP=5.49D-07 DE=-1.74D-10 OVMax= 7.52D-07

 Cycle  10  Pass 1  IDiag  1:
 E= -113.304332592003     Delta-E=       -0.000000000006 Rises=F Damp=F
 DIIS: error= 2.68D-08 at cycle   4 NSaved=   4.
 NSaved= 4 IEnMin= 4 EnMin= -113.304332592003     IErMin= 4 ErrMin= 2.68D-08
 ErrMax= 2.68D-08  0.00D+00 EMaxC= 1.00D-01 BMatC= 3.38D-14 BMatP= 7.22D-12
 IDIUse=1 WtCom= 1.00D+00 WtEn= 0.00D+00
 Coeff-Com: -0.376D-02 0.375D-01 0.193D+00 0.773D+00
 Coeff:     -0.376D-02 0.375D-01 0.193D+00 0.773D+00
 Gap=     0.262 Goal=   None    Shift=    0.000
 RMSDP=1.15D-08 MaxDP=2.09D-07 DE=-5.80D-12 OVMax= 7.58D-08

 Cycle  11  Pass 1  IDiag  1:
 E= -113.304332592002     Delta-E=        0.000000000000 Rises=F Damp=F
 DIIS: error= 4.23D-09 at cycle   5 NSaved=   5.
 NSaved= 5 IEnMin= 4 EnMin= -113.304332592003     IErMin= 5 ErrMin= 4.23D-09
 ErrMax= 4.23D-09  0.00D+00 EMaxC= 1.00D-01 BMatC= 5.42D-16 BMatP= 3.38D-14
 IDIUse=1 WtCom= 1.00D+00 WtEn= 0.00D+00
 Coeff-Com: -0.150D-02 0.910D-02 0.495D-01 0.229D+00 0.714D+00
 Coeff:     -0.150D-02 0.910D-02 0.495D-01 0.229D+00 0.714D+00
 Gap=     0.262 Goal=   None    Shift=    0.000
 RMSDP=1.14D-09 MaxDP=1.92D-08 DE= 1.99D-13 OVMax= 8.92D-09

 SCF Done:  E(RB-P86) =  -113.304332592     A.U. after   11 cycles
            NFock= 11  Conv=0.11D-08     -V/T= 2.0064
 KE= 1.125847329065D+02 PE=-3.108568150227D+02 EE= 6.248942561952D+01
 Leave Link  502 at Sun Apr 12 10:35:20 2020, MaxMem=  1879048192 cpu:         1.7
 (Enter /home/programs/G09_D/g09/l601.exe)
 Copying SCF densities to generalized density rwf, IOpCl= 0 IROHF=0.

 **********************************************************************

            Population analysis using the SCF density.

 **********************************************************************

 Orbital symmetries:
       Occupied  (SG) (SG) (SG) (SG) (PI) (PI) (SG)
       Virtual   (PI) (PI) (SG) (PI) (PI) (SG) (SG) (SG) (PI) (PI)
                 (DLTA) (DLTA) (SG) (PI) (PI) (DLTA) (DLTA) (SG)
                 (PI) (PI) (SG)
 The electronic state is 1-SG.
 Alpha  occ. eigenvalues --  -18.89504 -10.01816  -1.07038  -0.50774  -0.42400
 Alpha  occ. eigenvalues --   -0.42400  -0.31945
 Alpha virt. eigenvalues --   -0.05746  -0.05746   0.23904   0.47669   0.47669
 Alpha virt. eigenvalues --    0.55125   0.70437   0.77907   0.85896   0.85896
 Alpha virt. eigenvalues --    1.40741   1.40741   1.45126   1.47452   1.47452
 Alpha virt. eigenvalues --    1.86824   1.86824   2.35169   2.52446   2.52446
 Alpha virt. eigenvalues --    2.88083
          Condensed to atoms (all electrons):
               1          2
     1  C    5.301013   0.578912
     2  O    0.578912   7.541163
 Mulliken charges:
               1
     1  C    0.120075
     2  O   -0.120075
 Sum of Mulliken charges =   0.00000
 Mulliken charges with hydrogens summed into heavy atoms:
               1
     1  C    0.120075
     2  O   -0.120075
 Electronic spatial extent (au):  <R**2>=             39.1272
 Charge=              0.0000 electrons
 Dipole moment (field-independent basis, Debye):
    X=              0.0000    Y=              0.0000    Z=              0.2078  Tot=              0.2078
 Quadrupole moment (field-independent basis, Debye-Ang):
   XX=             -9.8522   YY=             -9.8522   ZZ=            -11.8948
   XY=              0.0000   XZ=              0.0000   YZ=              0.0000
 Traceless Quadrupole moment (field-independent basis, Debye-Ang):
   XX=              0.6809   YY=              0.6809   ZZ=             -1.3618
   XY=              0.0000   XZ=              0.0000   YZ=              0.0000
 Octapole moment (field-independent basis, Debye-Ang**2):
  XXX=              0.0000  YYY=              0.0000  ZZZ=              5.7585  XYY=              0.0000
  XXY=              0.0000  XXZ=              1.1318  XZZ=              0.0000  YZZ=              0.0000
  YYZ=              1.1318  XYZ=              0.0000
 Hexadecapole moment (field-independent basis, Debye-Ang**3):
 XXXX=             -7.7912 YYYY=             -7.7912 ZZZZ=            -33.8386 XXXY=              0.0000
 XXXZ=              0.0000 YYYX=              0.0000 YYYZ=              0.0000 ZZZX=              0.0000
 ZZZY=              0.0000 XXYY=             -2.5971 XXZZ=             -6.4315 YYZZ=             -6.4315
 XXYZ=              0.0000 YYXZ=              0.0000 ZZXY=              0.0000
 N-N= 2.247832390471D+01 E-N=-3.108568151159D+02  KE= 1.125847329065D+02
 Symmetry A1   KE= 1.044480924879D+02
 Symmetry A2   KE=-5.503362530810D-51
 Symmetry B1   KE= 4.068320209290D+00
 Symmetry B2   KE= 4.068320209290D+00
 No NMR shielding tensors so no spin-rotation constants.
 Leave Link  601 at Sun Apr 12 10:35:21 2020, MaxMem=  1879048192 cpu:         1.0
 (Enter /home/programs/G09_D/g09/l701.exe)
 Compute integral first derivatives.
 ... and contract with generalized density number  0.
 Leave Link  701 at Sun Apr 12 10:35:21 2020, MaxMem=  1879048192 cpu:         1.1
 (Enter /home/programs/G09_D/g09/l702.exe)
 L702 exits ... SP integral derivatives will be done elsewhere.
 Leave Link  702 at Sun Apr 12 10:35:21 2020, MaxMem=  1879048192 cpu:         0.1
 (Enter /home/programs/G09_D/g09/l703.exe)
 Compute integral first derivatives, UseDBF=F ICtDFT=           0.
 Integral derivatives from FoFJK, PRISM(SPDF).
 Calling FoFJK, ICntrl=      2527 FMM=F ISym2X=1 I1Cent= 0 IOpClX= 0 NMat=1 NMatS=1 NMatT=0.
 FoFJK:  IHMeth= 1 ICntrl=    2527 DoSepK=F KAlg= 0 I1Cent=   0 FoldK=F
 IRaf=         0 NMat=   1 IRICut=       1 DoRegI=T DoRafI=F ISym2E= 1.
 FoFCou: FMM=F IPFlag=           0 FMFlag=      100000 FMFlg1=         800
         NFxFlg=           0 DoJE=F BraDBF=F KetDBF=F FulRan=T
         wScrn=  0.000000 ICntrl=    2527 IOpCl=  0 I1Cent=           0 NGrid=           0
         NMat0=    1 NMatS0=      1 NMatT0=    0 NMatD0=    1 NMtDS0=    0 NMtDT0=    0
 Petite list used in FoFCou.
 Leave Link  703 at Sun Apr 12 10:35:22 2020, MaxMem=  1879048192 cpu:         1.2
 (Enter /home/programs/G09_D/g09/l716.exe)
 Dipole        = 0.00000000D+00 0.00000000D+00 8.17373118D-02
 ***** Axes restored to original set *****
 -------------------------------------------------------------------
 Center     Atomic                   Forces (Hartrees/Bohr)
 Number     Number              X              Y              Z
 -------------------------------------------------------------------
      1        6           0.000000000    0.000000000   -0.046856664
      2        8           0.000000000    0.000000000    0.046856664
 -------------------------------------------------------------------
 Cartesian Forces:  Max     0.046856664 RMS     0.027052708
 Leave Link  716 at Sun Apr 12 10:35:22 2020, MaxMem=  1879048192 cpu:         0.2
 (Enter /home/programs/G09_D/g09/l103.exe)

 GradGradGradGradGradGradGradGradGradGradGradGradGradGradGradGradGradGrad
 Berny optimization.
 FormGI is forming the generalized inverse of G from B-inverse, IUseBI=4.
 Internal  Forces:  Max     0.046856664 RMS     0.046856664
 Search for a local minimum.
 Step number   1 out of a maximum of   20
 All quantities printed in internal units (Hartrees-Bohrs-Radians)
 Swapping is turned off.
 Second derivative matrix not updated -- first step.
 The second derivative matrix:
                          R1
           R1           1.49622
 ITU=  0
     Eigenvalues ---    1.49622
 Angle between quadratic step and forces=   0.00 degrees.
 Linear search not attempted -- option 19 set.
 Iteration  1 RMS(Cart)=  0.02214418 RMS(Int)=  0.00000000
 Iteration  2 RMS(Cart)=  0.00000000 RMS(Int)=  0.00000000
 ITry= 1 IFail=0 DXMaxC= 1.57D-02 DCOld= 1.00D+10 DXMaxT= 3.00D-01 DXLimC= 3.00D+00 Rises=F
 ClnCor:  largest displacement from symmetrization is 0.00D+00 for atom     0.
 Variable       Old X    -DE/DX   Delta X   Delta X   Delta X     New X
                                 (Linear)    (Quad)   (Total)
    R1        2.13539   0.04686   0.00000   0.03132   0.03132   2.16671
         Item               Value     Threshold  Converged?
 Maximum Force            0.046857     0.000450     NO 
 RMS     Force            0.046857     0.000300     NO 
 Maximum Displacement     0.015658     0.001800     NO 
 RMS     Displacement     0.022144     0.001200     NO 
 Predicted change in Energy=-7.336958D-04
 Lowest energy point so far.  Saving SCF results.
 GradGradGradGradGradGradGradGradGradGradGradGradGradGradGradGradGradGrad

 Leave Link  103 at Sun Apr 12 10:35:22 2020, MaxMem=  1879048192 cpu:         0.0
 (Enter /home/programs/G09_D/g09/l202.exe)
                          Input orientation:                          
 ---------------------------------------------------------------------
 Center     Atomic      Atomic             Coordinates (Angstroms)
 Number     Number       Type             X           Y           Z
 ---------------------------------------------------------------------
      1          6           0        0.000000    0.000000   -0.008286
      2          8           0        0.000000    0.000000    1.138286
 ---------------------------------------------------------------------
 Stoichiometry    CO
 Framework group  C*V[C*(CO)]
 Deg. of freedom     1
 Full point group                 C*V     NOp   4
 RotChk:  IX=0 Diff= 0.00D+00
 Largest Abelian subgroup         C2V     NOp   4
 Largest concise Abelian subgroup C1      NOp   1
                         Standard orientation:                         
 ---------------------------------------------------------------------
 Center     Atomic      Atomic             Coordinates (Angstroms)
 Number     Number       Type             X           Y           Z
 ---------------------------------------------------------------------
      1          6           0        0.000000    0.000000   -0.655184
      2          8           0        0.000000    0.000000    0.491388
 ---------------------------------------------------------------------
 Rotational constants (GHZ):      0.0000000     56.0699904     56.0699904
 Leave Link  202 at Sun Apr 12 10:35:22 2020, MaxMem=  1879048192 cpu:         0.0
 (Enter /home/programs/G09_D/g09/l301.exe)
 Basis read from rwf:  (5D, 7F)
 No pseudopotential information found on rwf file.
 There are    16 symmetry adapted cartesian basis functions of A1  symmetry.
 There are     2 symmetry adapted cartesian basis functions of A2  symmetry.
 There are     6 symmetry adapted cartesian basis functions of B1  symmetry.
 There are     6 symmetry adapted cartesian basis functions of B2  symmetry.
 There are    14 symmetry adapted basis functions of A1  symmetry.
 There are     2 symmetry adapted basis functions of A2  symmetry.
 There are     6 symmetry adapted basis functions of B1  symmetry.
 There are     6 symmetry adapted basis functions of B2  symmetry.
    28 basis functions,    56 primitive gaussians,    30 cartesian basis functions
     7 alpha electrons        7 beta electrons
       nuclear repulsion energy        22.1534323823 Hartrees.
 IExCor=  404 DFT=T Ex=B Corr=P86 ExCW=0 ScaHFX=  0.000000
 ScaDFX=  1.000000  1.000000  1.000000  1.000000 ScalE2=  1.000000  1.000000
 IRadAn=      5 IRanWt=     -1 IRanGd=            0 ICorTp=0 IEmpDi=  4
 NAtoms=    2 NActive=    2 NUniq=    2 SFac= 1.00D+00 NAtFMM=   60 NAOKFM=F Big=F
 Integral buffers will be    131072 words long.
 Raffenetti 2 integral format.
 Two-electron integral symmetry is turned on.
 No density basis found on file   724.
 Leave Link  301 at Sun Apr 12 10:35:22 2020, MaxMem=  1879048192 cpu:         0.5
 (Enter /home/programs/G09_D/g09/l302.exe)
 NPDir=0 NMtPBC=     1 NCelOv=     1 NCel=       1 NClECP=     1 NCelD=      1
         NCelK=      1 NCelE2=     1 NClLst=     1 CellRange=     0.0.
 One-electron integrals computed using PRISM.
 NBasis=    28 RedAO= T EigKep=  3.16D-02  NBF=    14     2     6     6
 NBsUse=    28 1.00D-06 EigRej= -1.00D+00 NBFU=    14     2     6     6
 Precomputing XC quadrature grid using
 IXCGrd= 4 IRadAn=           5 IRanWt=          -1 IRanGd=           0 AccXCQ= 0.00D+00.
 Generated NRdTot=       0 NPtTot=           0 NUsed=           0 NTot=          32
 NSgBfM=    30    30    30    30    30 MxSgAt=     2 MxSgA2=     2.
 Leave Link  302 at Sun Apr 12 10:35:22 2020, MaxMem=  1879048192 cpu:         1.3
 (Enter /home/programs/G09_D/g09/l303.exe)
 DipDrv:  MaxL=1.
 Leave Link  303 at Sun Apr 12 10:35:22 2020, MaxMem=  1879048192 cpu:         0.2
 (Enter /home/programs/G09_D/g09/l401.exe)
 Initial guess from the checkpoint file:  "/state/partition1/stuart_2020-04-12-1035_14436/Gau-25926.chk"
 B after Tr=     0.000000    0.000000    0.000000
         Rot=    1.000000    0.000000    0.000000    0.000000 Ang=   0.00 deg.
 Guess basis will be translated and rotated to current coordinates.
 JPrj=2 DoOrth=T DoCkMO=T.
 Initial guess orbital symmetries:
       Occupied  (SG) (SG) (SG) (SG) (PI) (PI) (SG)
       Virtual   (SG) (SG) (SG) (SG) (DLTA) (SG) (DLTA) (SG) (SG)
                 (DLTA) (DLTA) (PI) (PI) (PI) (PI) (PI) (PI) (PI)
                 (PI) (PI) (PI)
 The electronic state of the initial guess is 1-SG.
 Leave Link  401 at Sun Apr 12 10:35:22 2020, MaxMem=  1879048192 cpu:         0.6
 (Enter /home/programs/G09_D/g09/l502.exe)
 Closed shell SCF:
 Using DIIS extrapolation, IDIIS=  1040.
 Integral symmetry usage will be decided dynamically.
 Keep J ints in memory in symmetry-blocked form, NReq=968469.
 IVT=       21746 IEndB=       21746 NGot=  1879048192 MDV=  1879001938
 LenX=  1879001938 LenY=  1879000597
 Requested convergence on RMS density matrix=1.00D-08 within 128 cycles.
 Requested convergence on MAX density matrix=1.00D-06.
 Requested convergence on             energy=1.00D-06.
 No special actions if energy rises.
 FoFCou: FMM=F IPFlag=           0 FMFlag=           0 FMFlg1=           0
         NFxFlg=           0 DoJE=F BraDBF=F KetDBF=F FulRan=T
         wScrn=  0.000000 ICntrl=     600 IOpCl=  0 I1Cent=           0 NGrid=           0
         NMat0=    1 NMatS0=    406 NMatT0=    0 NMatD0=    1 NMtDS0=    0 NMtDT0=    0
 Petite list used in FoFCou.

 Cycle   1  Pass 1  IDiag  1:
 E= -113.304992597390    
 DIIS: error= 2.02D-03 at cycle   1 NSaved=   1.
 NSaved= 1 IEnMin= 1 EnMin= -113.304992597390     IErMin= 1 ErrMin= 2.02D-03
 ErrMax= 2.02D-03  0.00D+00 EMaxC= 1.00D-01 BMatC= 1.67D-04 BMatP= 1.67D-04
 IDIUse=3 WtCom= 9.80D-01 WtEn= 2.02D-02
 Coeff-Com:  0.100D+01
 Coeff-En:   0.100D+01
 Coeff:      0.100D+01
 Gap=     0.962 Goal=   None    Shift=    0.000
 GapD=    0.962 DampG=2.000 DampE=1.000 DampFc=2.0000 IDamp=-1.
 RMSDP=6.60D-04 MaxDP=4.65D-03              OVMax= 5.49D-03

 Cycle   2  Pass 1  IDiag  1:
 E= -113.305096339328     Delta-E=       -0.000103741938 Rises=F Damp=F
 DIIS: error= 1.75D-03 at cycle   2 NSaved=   2.
 NSaved= 2 IEnMin= 2 EnMin= -113.305096339328     IErMin= 2 ErrMin= 1.75D-03
 ErrMax= 1.75D-03  0.00D+00 EMaxC= 1.00D-01 BMatC= 1.01D-04 BMatP= 1.67D-04
 IDIUse=3 WtCom= 9.83D-01 WtEn= 1.75D-02
 Coeff-Com:  0.419D+00 0.581D+00
 Coeff-En:   0.921D-01 0.908D+00
 Coeff:      0.413D+00 0.587D+00
 Gap=     0.257 Goal=   None    Shift=    0.000
 RMSDP=3.70D-04 MaxDP=4.60D-03 DE=-1.04D-04 OVMax= 6.02D-03

 Cycle   3  Pass 1  IDiag  1:
 E= -113.305063923905     Delta-E=        0.000032415423 Rises=F Damp=F
 DIIS: error= 2.63D-03 at cycle   3 NSaved=   3.
 NSaved= 3 IEnMin= 2 EnMin= -113.305096339328     IErMin= 2 ErrMin= 1.75D-03
 ErrMax= 2.63D-03  0.00D+00 EMaxC= 1.00D-01 BMatC= 1.37D-04 BMatP= 1.01D-04
 IDIUse=3 WtCom= 1.63D-01 WtEn= 8.37D-01
 Coeff-Com:  0.144D+00 0.497D+00 0.359D+00
 Coeff-En:   0.000D+00 0.568D+00 0.432D+00
 Coeff:      0.236D-01 0.556D+00 0.420D+00
 Gap=     0.257 Goal=   None    Shift=    0.000
 RMSDP=2.81D-04 MaxDP=2.83D-03 DE= 3.24D-05 OVMax= 4.38D-03

 Cycle   4  Pass 1  IDiag  1:
 E= -113.305164082977     Delta-E=       -0.000100159072 Rises=F Damp=F
 DIIS: error= 4.83D-04 at cycle   4 NSaved=   4.
 NSaved= 4 IEnMin= 4 EnMin= -113.305164082977     IErMin= 4 ErrMin= 4.83D-04
 ErrMax= 4.83D-04  0.00D+00 EMaxC= 1.00D-01 BMatC= 5.56D-06 BMatP= 1.01D-04
 IDIUse=3 WtCom= 9.95D-01 WtEn= 4.83D-03
 Coeff-Com:  0.587D-02 0.206D+00 0.226D+00 0.561D+00
 Coeff-En:   0.000D+00 0.000D+00 0.424D-01 0.958D+00
 Coeff:      0.584D-02 0.205D+00 0.225D+00 0.563D+00
 Gap=     0.257 Goal=   None    Shift=    0.000
 RMSDP=8.18D-05 MaxDP=1.17D-03 DE=-1.00D-04 OVMax= 8.15D-04

 Cycle   5  Pass 1  IDiag  1:
 E= -113.305170132317     Delta-E=       -0.000006049340 Rises=F Damp=F
 DIIS: error= 5.32D-06 at cycle   5 NSaved=   5.
 NSaved= 5 IEnMin= 5 EnMin= -113.305170132317     IErMin= 5 ErrMin= 5.32D-06
 ErrMax= 5.32D-06  0.00D+00 EMaxC= 1.00D-01 BMatC= 7.18D-10 BMatP= 5.56D-06
 IDIUse=1 WtCom= 1.00D+00 WtEn= 0.00D+00
 Coeff-Com:  0.155D-04 0.105D-01 0.144D-01 0.393D-01 0.936D+00
 Coeff:      0.155D-04 0.105D-01 0.144D-01 0.393D-01 0.936D+00
 Gap=     0.257 Goal=   None    Shift=    0.000
 RMSDP=1.05D-06 MaxDP=1.48D-05 DE=-6.05D-06 OVMax= 8.67D-06

 Cycle   6  Pass 1  IDiag  1:
 E= -113.305170132982     Delta-E=       -0.000000000665 Rises=F Damp=F
 DIIS: error= 3.95D-07 at cycle   6 NSaved=   6.
 NSaved= 6 IEnMin= 6 EnMin= -113.305170132982     IErMin= 6 ErrMin= 3.95D-07
 ErrMax= 3.95D-07  0.00D+00 EMaxC= 1.00D-01 BMatC= 5.58D-12 BMatP= 7.18D-10
 IDIUse=1 WtCom= 1.00D+00 WtEn= 0.00D+00
 Coeff-Com: -0.259D-05 0.191D-02 0.264D-02 0.755D-02 0.221D+00 0.767D+00
 Coeff:     -0.259D-05 0.191D-02 0.264D-02 0.755D-02 0.221D+00 0.767D+00
 Gap=     0.257 Goal=   None    Shift=    0.000
 RMSDP=9.91D-08 MaxDP=1.81D-06 DE=-6.65D-10 OVMax= 7.31D-07

 Cycle   7  Pass 1  IDiag  1:
 E= -113.305170132986     Delta-E=       -0.000000000004 Rises=F Damp=F
 DIIS: error= 1.23D-07 at cycle   7 NSaved=   7.
 NSaved= 7 IEnMin= 7 EnMin= -113.305170132986     IErMin= 7 ErrMin= 1.23D-07
 ErrMax= 1.23D-07  0.00D+00 EMaxC= 1.00D-01 BMatC= 2.78D-13 BMatP= 5.58D-12
 IDIUse=1 WtCom= 1.00D+00 WtEn= 0.00D+00
 Coeff-Com: -0.638D-06 0.236D-03 0.283D-03 0.915D-03 0.268D-01 0.124D+00
 Coeff-Com:  0.848D+00
 Coeff:     -0.638D-06 0.236D-03 0.283D-03 0.915D-03 0.268D-01 0.124D+00
 Coeff:      0.848D+00
 Gap=     0.257 Goal=   None    Shift=    0.000
 RMSDP=1.57D-08 MaxDP=1.72D-07 DE=-4.41D-12 OVMax= 2.09D-07

 Cycle   8  Pass 1  IDiag  1:
 E= -113.305170132987     Delta-E=        0.000000000000 Rises=F Damp=F
 DIIS: error= 9.91D-09 at cycle   8 NSaved=   8.
 NSaved= 8 IEnMin= 8 EnMin= -113.305170132987     IErMin= 8 ErrMin= 9.91D-09
 ErrMax= 9.91D-09  0.00D+00 EMaxC= 1.00D-01 BMatC= 1.76D-15 BMatP= 2.78D-13
 IDIUse=1 WtCom= 1.00D+00 WtEn= 0.00D+00
 Coeff-Com: -0.284D-07 0.380D-05 0.508D-05 0.165D-04 0.741D-03 0.485D-02
 Coeff-Com:  0.826D-01 0.912D+00
 Coeff:     -0.284D-07 0.380D-05 0.508D-05 0.165D-04 0.741D-03 0.485D-02
 Coeff:      0.826D-01 0.912D+00
 Gap=     0.257 Goal=   None    Shift=    0.000
 RMSDP=1.09D-09 MaxDP=1.36D-08 DE=-4.55D-13 OVMax= 1.38D-08

 SCF Done:  E(RB-P86) =  -113.305170133     A.U. after    8 cycles
            NFock=  8  Conv=0.11D-08     -V/T= 2.0071
 KE= 1.125066468690D+02 PE=-3.101650033625D+02 EE= 6.219975397815D+01
 Leave Link  502 at Sun Apr 12 10:35:23 2020, MaxMem=  1879048192 cpu:         1.8
 (Enter /home/programs/G09_D/g09/l701.exe)
 Compute integral first derivatives.
 ... and contract with generalized density number  0.
 Leave Link  701 at Sun Apr 12 10:35:23 2020, MaxMem=  1879048192 cpu:         1.1
 (Enter /home/programs/G09_D/g09/l702.exe)
 L702 exits ... SP integral derivatives will be done elsewhere.
 Leave Link  702 at Sun Apr 12 10:35:23 2020, MaxMem=  1879048192 cpu:         0.1
 (Enter /home/programs/G09_D/g09/l703.exe)
 Compute integral first derivatives, UseDBF=F ICtDFT=           0.
 Integral derivatives from FoFJK, PRISM(SPDF).
 Calling FoFJK, ICntrl=      2527 FMM=F ISym2X=1 I1Cent= 0 IOpClX= 0 NMat=1 NMatS=1 NMatT=0.
 FoFJK:  IHMeth= 1 ICntrl=    2527 DoSepK=F KAlg= 0 I1Cent=   0 FoldK=F
 IRaf=         0 NMat=   1 IRICut=       1 DoRegI=T DoRafI=F ISym2E= 1.
 FoFCou: FMM=F IPFlag=           0 FMFlag=      100000 FMFlg1=         800
         NFxFlg=           0 DoJE=F BraDBF=F KetDBF=F FulRan=T
         wScrn=  0.000000 ICntrl=    2527 IOpCl=  0 I1Cent=           0 NGrid=           0
         NMat0=    1 NMatS0=      1 NMatT0=    0 NMatD0=    1 NMtDS0=    0 NMtDT0=    0
 Petite list used in FoFCou.
 Leave Link  703 at Sun Apr 12 10:35:23 2020, MaxMem=  1879048192 cpu:         1.2
 (Enter /home/programs/G09_D/g09/l716.exe)
 Dipole        = 0.00000000D+00 0.00000000D+00 6.20114622D-02
 ***** Axes restored to original set *****
 -------------------------------------------------------------------
 Center     Atomic                   Forces (Hartrees/Bohr)
 Number     Number              X              Y              Z
 -------------------------------------------------------------------
      1        6           0.000000000    0.000000000   -0.007340106
      2        8           0.000000000    0.000000000    0.007340106
 -------------------------------------------------------------------
 Cartesian Forces:  Max     0.007340106 RMS     0.004237812
 Leave Link  716 at Sun Apr 12 10:35:23 2020, MaxMem=  1879048192 cpu:         0.2
 (Enter /home/programs/G09_D/g09/l103.exe)

 GradGradGradGradGradGradGradGradGradGradGradGradGradGradGradGradGradGrad
 Berny optimization.
 Using GDIIS optimizer.
 Red2BG is reusing G-inverse.
 Internal  Forces:  Max     0.007340106 RMS     0.007340106
 Search for a local minimum.
 Step number   2 out of a maximum of   20
 All quantities printed in internal units (Hartrees-Bohrs-Radians)
 Swapping is turned off.
 Update second derivatives using D2CorX and points    1    2
 DE= -8.38D-04 DEPred=-7.34D-04 R= 1.14D+00
 TightC=F SS=  1.41D+00  RLast= 3.13D-02 DXNew= 5.0454D-01 9.3950D-02
 Trust test= 1.14D+00 RLast= 3.13D-02 DXMaxT set to 3.00D-01
 The second derivative matrix:
                          R1
           R1           1.26184
 ITU=  1  0
     Eigenvalues ---    1.26184
 Cut down GDIIS permanently because of the redundancy. E 1
     Eigenvalues ---    1.26184
 Angle between quadratic step and forces=   0.00 degrees.
 Linear search not attempted -- option 19 set.
 Iteration  1 RMS(Cart)=  0.00411323 RMS(Int)=  0.00000000
 Iteration  2 RMS(Cart)=  0.00000000 RMS(Int)=  0.00000000
 ITry= 1 IFail=0 DXMaxC= 2.91D-03 DCOld= 1.00D+10 DXMaxT= 3.00D-01 DXLimC= 3.00D+00 Rises=F
 ClnCor:  largest displacement from symmetrization is 0.00D+00 for atom     0.
 Variable       Old X    -DE/DX   Delta X   Delta X   Delta X     New X
                                 (Linear)    (Quad)   (Total)
    R1        2.16671   0.00734   0.00000   0.00582   0.00582   2.17252
         Item               Value     Threshold  Converged?
 Maximum Force            0.007340     0.000450     NO 
 RMS     Force            0.007340     0.000300     NO 
 Maximum Displacement     0.002908     0.001800     NO 
 RMS     Displacement     0.004113     0.001200     NO 
 Predicted change in Energy=-2.134864D-05
 Lowest energy point so far.  Saving SCF results.
 GradGradGradGradGradGradGradGradGradGradGradGradGradGradGradGradGradGrad

 Leave Link  103 at Sun Apr 12 10:35:23 2020, MaxMem=  1879048192 cpu:         0.0
 (Enter /home/programs/G09_D/g09/l202.exe)
                          Input orientation:                          
 ---------------------------------------------------------------------
 Center     Atomic      Atomic             Coordinates (Angstroms)
 Number     Number       Type             X           Y           Z
 ---------------------------------------------------------------------
      1          6           0        0.000000    0.000000   -0.009825
      2          8           0        0.000000    0.000000    1.139825
 ---------------------------------------------------------------------
 Stoichiometry    CO
 Framework group  C*V[C*(CO)]
 Deg. of freedom     1
 Full point group                 C*V     NOp   4
 RotChk:  IX=0 Diff= 0.00D+00
 Largest Abelian subgroup         C2V     NOp   4
 Largest concise Abelian subgroup C1      NOp   1
                         Standard orientation:                         
 ---------------------------------------------------------------------
 Center     Atomic      Atomic             Coordinates (Angstroms)
 Number     Number       Type             X           Y           Z
 ---------------------------------------------------------------------
      1          6           0        0.000000    0.000000   -0.656943
      2          8           0        0.000000    0.000000    0.492707
 ---------------------------------------------------------------------
 Rotational constants (GHZ):      0.0000000     55.7701350     55.7701350
 Leave Link  202 at Sun Apr 12 10:35:23 2020, MaxMem=  1879048192 cpu:         0.0
 (Enter /home/programs/G09_D/g09/l301.exe)
 Basis read from rwf:  (5D, 7F)
 No pseudopotential information found on rwf file.
 There are    16 symmetry adapted cartesian basis functions of A1  symmetry.
 There are     2 symmetry adapted cartesian basis functions of A2  symmetry.
 There are     6 symmetry adapted cartesian basis functions of B1  symmetry.
 There are     6 symmetry adapted cartesian basis functions of B2  symmetry.
 There are    14 symmetry adapted basis functions of A1  symmetry.
 There are     2 symmetry adapted basis functions of A2  symmetry.
 There are     6 symmetry adapted basis functions of B1  symmetry.
 There are     6 symmetry adapted basis functions of B2  symmetry.
    28 basis functions,    56 primitive gaussians,    30 cartesian basis functions
     7 alpha electrons        7 beta electrons
       nuclear repulsion energy        22.0941160483 Hartrees.
 IExCor=  404 DFT=T Ex=B Corr=P86 ExCW=0 ScaHFX=  0.000000
 ScaDFX=  1.000000  1.000000  1.000000  1.000000 ScalE2=  1.000000  1.000000
 IRadAn=      5 IRanWt=     -1 IRanGd=            0 ICorTp=0 IEmpDi=  4
 NAtoms=    2 NActive=    2 NUniq=    2 SFac= 1.00D+00 NAtFMM=   60 NAOKFM=F Big=F
 Integral buffers will be    131072 words long.
 Raffenetti 2 integral format.
 Two-electron integral symmetry is turned on.
 No density basis found on file   724.
 Leave Link  301 at Sun Apr 12 10:35:23 2020, MaxMem=  1879048192 cpu:         0.5
 (Enter /home/programs/G09_D/g09/l302.exe)
 NPDir=0 NMtPBC=     1 NCelOv=     1 NCel=       1 NClECP=     1 NCelD=      1
         NCelK=      1 NCelE2=     1 NClLst=     1 CellRange=     0.0.
 One-electron integrals computed using PRISM.
 NBasis=    28 RedAO= T EigKep=  3.18D-02  NBF=    14     2     6     6
 NBsUse=    28 1.00D-06 EigRej= -1.00D+00 NBFU=    14     2     6     6
 Precomputing XC quadrature grid using
 IXCGrd= 4 IRadAn=           5 IRanWt=          -1 IRanGd=           0 AccXCQ= 0.00D+00.
 Generated NRdTot=       0 NPtTot=           0 NUsed=           0 NTot=          32
 NSgBfM=    30    30    30    30    30 MxSgAt=     2 MxSgA2=     2.
 Leave Link  302 at Sun Apr 12 10:35:24 2020, MaxMem=  1879048192 cpu:         1.1
 (Enter /home/programs/G09_D/g09/l303.exe)
 DipDrv:  MaxL=1.
 Leave Link  303 at Sun Apr 12 10:35:24 2020, MaxMem=  1879048192 cpu:         0.2
 (Enter /home/programs/G09_D/g09/l401.exe)
 Initial guess from the checkpoint file:  "/state/partition1/stuart_2020-04-12-1035_14436/Gau-25926.chk"
 B after Tr=     0.000000    0.000000    0.000000
         Rot=    1.000000    0.000000    0.000000    0.000000 Ang=   0.00 deg.
 Guess basis will be translated and rotated to current coordinates.
 JPrj=2 DoOrth=T DoCkMO=T.
 Initial guess orbital symmetries:
       Occupied  (SG) (SG) (SG) (SG) (PI) (PI) (SG)
       Virtual   (SG) (SG) (SG) (SG) (DLTA) (SG) (DLTA) (SG) (SG)
                 (DLTA) (DLTA) (PI) (PI) (PI) (PI) (PI) (PI) (PI)
                 (PI) (PI) (PI)
 The electronic state of the initial guess is 1-SG.
 Leave Link  401 at Sun Apr 12 10:35:24 2020, MaxMem=  1879048192 cpu:         0.6
 (Enter /home/programs/G09_D/g09/l502.exe)
 Closed shell SCF:
 Using DIIS extrapolation, IDIIS=  1040.
 Integral symmetry usage will be decided dynamically.
 Keep J ints in memory in symmetry-blocked form, NReq=968469.
 IVT=       21746 IEndB=       21746 NGot=  1879048192 MDV=  1879001938
 LenX=  1879001938 LenY=  1879000597
 Requested convergence on RMS density matrix=1.00D-08 within 128 cycles.
 Requested convergence on MAX density matrix=1.00D-06.
 Requested convergence on             energy=1.00D-06.
 No special actions if energy rises.
 FoFCou: FMM=F IPFlag=           0 FMFlag=           0 FMFlg1=           0
         NFxFlg=           0 DoJE=F BraDBF=F KetDBF=F FulRan=T
         wScrn=  0.000000 ICntrl=     600 IOpCl=  0 I1Cent=           0 NGrid=           0
         NMat0=    1 NMatS0=    406 NMatT0=    0 NMatD0=    1 NMtDS0=    0 NMtDT0=    0
 Petite list used in FoFCou.

 Cycle   1  Pass 1  IDiag  1:
 E= -113.305186989909    
 DIIS: error= 3.63D-04 at cycle   1 NSaved=   1.
 NSaved= 1 IEnMin= 1 EnMin= -113.305186989909     IErMin= 1 ErrMin= 3.63D-04
 ErrMax= 3.63D-04  0.00D+00 EMaxC= 1.00D-01 BMatC= 5.59D-06 BMatP= 5.59D-06
 IDIUse=3 WtCom= 9.96D-01 WtEn= 3.63D-03
 Coeff-Com:  0.100D+01
 Coeff-En:   0.100D+01
 Coeff:      0.100D+01
 Gap=     0.960 Goal=   None    Shift=    0.000
 RMSDP=1.22D-04 MaxDP=8.63D-04              OVMax= 1.01D-03

 Cycle   2  Pass 1  IDiag  1:
 E= -113.305190495477     Delta-E=       -0.000003505567 Rises=F Damp=F
 DIIS: error= 3.22D-04 at cycle   2 NSaved=   2.
 NSaved= 2 IEnMin= 2 EnMin= -113.305190495477     IErMin= 2 ErrMin= 3.22D-04
 ErrMax= 3.22D-04  0.00D+00 EMaxC= 1.00D-01 BMatC= 3.46D-06 BMatP= 5.59D-06
 IDIUse=3 WtCom= 9.97D-01 WtEn= 3.22D-03
 Coeff-Com:  0.422D+00 0.578D+00
 Coeff-En:   0.931D-01 0.907D+00
 Coeff:      0.421D+00 0.579D+00
 Gap=     0.256 Goal=   None    Shift=    0.000
 RMSDP=6.81D-05 MaxDP=8.47D-04 DE=-3.51D-06 OVMax= 1.11D-03

 Cycle   3  Pass 1  IDiag  1:
 E= -113.305189555538     Delta-E=        0.000000939939 Rises=F Damp=F
 DIIS: error= 4.86D-04 at cycle   3 NSaved=   3.
 NSaved= 3 IEnMin= 2 EnMin= -113.305190495477     IErMin= 2 ErrMin= 3.22D-04
 ErrMax= 4.86D-04  0.00D+00 EMaxC= 1.00D-01 BMatC= 4.64D-06 BMatP= 3.46D-06
 IDIUse=3 WtCom= 3.12D-01 WtEn= 6.88D-01
 Coeff-Com:  0.144D+00 0.495D+00 0.361D+00
 Coeff-En:   0.000D+00 0.558D+00 0.442D+00
 Coeff:      0.449D-01 0.538D+00 0.417D+00
 Gap=     0.256 Goal=   None    Shift=    0.000
 RMSDP=5.27D-05 MaxDP=5.19D-04 DE= 9.40D-07 OVMax= 8.28D-04

 Cycle   4  Pass 1  IDiag  1:
 E= -113.305192800186     Delta-E=       -0.000003244648 Rises=F Damp=F
 DIIS: error= 1.03D-04 at cycle   4 NSaved=   4.
 NSaved= 4 IEnMin= 4 EnMin= -113.305192800186     IErMin= 4 ErrMin= 1.03D-04
 ErrMax= 1.03D-04  0.00D+00 EMaxC= 1.00D-01 BMatC= 2.16D-07 BMatP= 3.46D-06
 IDIUse=3 WtCom= 9.99D-01 WtEn= 1.03D-03
 Coeff-Com:  0.572D-02 0.189D+00 0.235D+00 0.570D+00
 Coeff-En:   0.000D+00 0.000D+00 0.870D-01 0.913D+00
 Coeff:      0.572D-02 0.189D+00 0.235D+00 0.570D+00
 Gap=     0.256 Goal=   None    Shift=    0.000
 RMSDP=1.48D-05 MaxDP=2.08D-04 DE=-3.24D-06 OVMax= 1.62D-04

 Cycle   5  Pass 1  IDiag  1:
 E= -113.305193077077     Delta-E=       -0.000000276891 Rises=F Damp=F
 DIIS: error= 1.13D-06 at cycle   5 NSaved=   5.
 NSaved= 5 IEnMin= 5 EnMin= -113.305193077077     IErMin= 5 ErrMin= 1.13D-06
 ErrMax= 1.13D-06  0.00D+00 EMaxC= 1.00D-01 BMatC= 3.77D-11 BMatP= 2.16D-07
 IDIUse=1 WtCom= 1.00D+00 WtEn= 0.00D+00
 Coeff-Com:  0.992D-05 0.875D-02 0.149D-01 0.360D-01 0.940D+00
 Coeff:      0.992D-05 0.875D-02 0.149D-01 0.360D-01 0.940D+00
 Gap=     0.256 Goal=   None    Shift=    0.000
 RMSDP=1.77D-07 MaxDP=1.72D-06 DE=-2.77D-07 OVMax= 2.07D-06

 Cycle   6  Pass 1  IDiag  1:
 E= -113.305193077108     Delta-E=       -0.000000000031 Rises=F Damp=F
 DIIS: error= 1.25D-07 at cycle   6 NSaved=   6.
 NSaved= 6 IEnMin= 6 EnMin= -113.305193077108     IErMin= 6 ErrMin= 1.25D-07
 ErrMax= 1.25D-07  0.00D+00 EMaxC= 1.00D-01 BMatC= 3.25D-13 BMatP= 3.77D-11
 IDIUse=1 WtCom= 1.00D+00 WtEn= 0.00D+00
 Coeff-Com: -0.247D-05 0.151D-02 0.255D-02 0.651D-02 0.205D+00 0.784D+00
 Coeff:     -0.247D-05 0.151D-02 0.255D-02 0.651D-02 0.205D+00 0.784D+00
 Gap=     0.256 Goal=   None    Shift=    0.000
 RMSDP=1.48D-08 MaxDP=2.37D-07 DE=-3.14D-11 OVMax= 1.41D-07

 Cycle   7  Pass 1  IDiag  1:
 E= -113.305193077108     Delta-E=        0.000000000000 Rises=F Damp=F
 DIIS: error= 2.52D-08 at cycle   7 NSaved=   7.
 NSaved= 7 IEnMin= 7 EnMin= -113.305193077108     IErMin= 7 ErrMin= 2.52D-08
 ErrMax= 2.52D-08  0.00D+00 EMaxC= 1.00D-01 BMatC= 1.19D-14 BMatP= 3.25D-13
 IDIUse=1 WtCom= 1.00D+00 WtEn= 0.00D+00
 Coeff-Com: -0.823D-06 0.214D-03 0.306D-03 0.902D-03 0.282D-01 0.146D+00
 Coeff-Com:  0.825D+00
 Coeff:     -0.823D-06 0.214D-03 0.306D-03 0.902D-03 0.282D-01 0.146D+00
 Coeff:      0.825D+00
 Gap=     0.256 Goal=   None    Shift=    0.000
 RMSDP=3.08D-09 MaxDP=3.58D-08 DE=-3.41D-13 OVMax= 4.08D-08

 SCF Done:  E(RB-P86) =  -113.305193077     A.U. after    7 cycles
            NFock=  7  Conv=0.31D-08     -V/T= 2.0072
 KE= 1.124928046281D+02 PE=-3.100388834796D+02 EE= 6.214676972607D+01
 Leave Link  502 at Sun Apr 12 10:35:24 2020, MaxMem=  1879048192 cpu:         1.5
 (Enter /home/programs/G09_D/g09/l701.exe)
 Compute integral first derivatives.
 ... and contract with generalized density number  0.
 Leave Link  701 at Sun Apr 12 10:35:24 2020, MaxMem=  1879048192 cpu:         1.1
 (Enter /home/programs/G09_D/g09/l702.exe)
 L702 exits ... SP integral derivatives will be done elsewhere.
 Leave Link  702 at Sun Apr 12 10:35:24 2020, MaxMem=  1879048192 cpu:         0.1
 (Enter /home/programs/G09_D/g09/l703.exe)
 Compute integral first derivatives, UseDBF=F ICtDFT=           0.
 Integral derivatives from FoFJK, PRISM(SPDF).
 Calling FoFJK, ICntrl=      2527 FMM=F ISym2X=1 I1Cent= 0 IOpClX= 0 NMat=1 NMatS=1 NMatT=0.
 FoFJK:  IHMeth= 1 ICntrl=    2527 DoSepK=F KAlg= 0 I1Cent=   0 FoldK=F
 IRaf=         0 NMat=   1 IRICut=       1 DoRegI=T DoRafI=F ISym2E= 1.
 FoFCou: FMM=F IPFlag=           0 FMFlag=      100000 FMFlg1=         800
         NFxFlg=           0 DoJE=F BraDBF=F KetDBF=F FulRan=T
         wScrn=  0.000000 ICntrl=    2527 IOpCl=  0 I1Cent=           0 NGrid=           0
         NMat0=    1 NMatS0=      1 NMatT0=    0 NMatD0=    1 NMtDS0=    0 NMtDT0=    0
 Petite list used in FoFCou.
 Leave Link  703 at Sun Apr 12 10:35:24 2020, MaxMem=  1879048192 cpu:         1.2
 (Enter /home/programs/G09_D/g09/l716.exe)
 Dipole        = 0.00000000D+00 0.00000000D+00 5.83478009D-02
 ***** Axes restored to original set *****
 -------------------------------------------------------------------
 Center     Atomic                   Forces (Hartrees/Bohr)
 Number     Number              X              Y              Z
 -------------------------------------------------------------------
      1        6           0.000000000    0.000000000   -0.000491529
      2        8           0.000000000    0.000000000    0.000491529
 -------------------------------------------------------------------
 Cartesian Forces:  Max     0.000491529 RMS     0.000283784
 Leave Link  716 at Sun Apr 12 10:35:24 2020, MaxMem=  1879048192 cpu:         0.2
 (Enter /home/programs/G09_D/g09/l103.exe)

 GradGradGradGradGradGradGradGradGradGradGradGradGradGradGradGradGradGrad
 Berny optimization.
 Using GDIIS optimizer.
 Red2BG is reusing G-inverse.
 Internal  Forces:  Max     0.000491529 RMS     0.000491529
 Search for a local minimum.
 Step number   3 out of a maximum of   20
 All quantities printed in internal units (Hartrees-Bohrs-Radians)
 Swapping is turned off.
 Update second derivatives using D2CorX and points    2    3
 DE= -2.29D-05 DEPred=-2.13D-05 R= 1.07D+00
 TightC=F SS=  1.41D+00  RLast= 5.82D-03 DXNew= 5.0454D-01 1.7451D-02
 Trust test= 1.07D+00 RLast= 5.82D-03 DXMaxT set to 3.00D-01
 The second derivative matrix:
                          R1
           R1           1.17734
 ITU=  1  1
     Eigenvalues ---    1.17734
 Cut down GDIIS permanently because of the redundancy. E 1
     Eigenvalues ---    1.17734
 Angle between quadratic step and forces=   0.00 degrees.
 Linear search not attempted -- option 19 set.
 Iteration  1 RMS(Cart)=  0.00029521 RMS(Int)=  0.00000000
 Iteration  2 RMS(Cart)=  0.00000000 RMS(Int)=  0.00000000
 ITry= 1 IFail=0 DXMaxC= 2.09D-04 DCOld= 1.00D+10 DXMaxT= 3.00D-01 DXLimC= 3.00D+00 Rises=F
 ClnCor:  largest displacement from symmetrization is 0.00D+00 for atom     0.
 Variable       Old X    -DE/DX   Delta X   Delta X   Delta X     New X
                                 (Linear)    (Quad)   (Total)
    R1        2.17252   0.00049   0.00000   0.00042   0.00042   2.17294
         Item               Value     Threshold  Converged?
 Maximum Force            0.000492     0.000450     NO 
 RMS     Force            0.000492     0.000300     NO 
 Maximum Displacement     0.000209     0.001800     YES
 RMS     Displacement     0.000295     0.001200     YES
 Predicted change in Energy=-1.026044D-07
 Lowest energy point so far.  Saving SCF results.
 GradGradGradGradGradGradGradGradGradGradGradGradGradGradGradGradGradGrad

 Leave Link  103 at Sun Apr 12 10:35:24 2020, MaxMem=  1879048192 cpu:         0.0
 (Enter /home/programs/G09_D/g09/l202.exe)
                          Input orientation:                          
 ---------------------------------------------------------------------
 Center     Atomic      Atomic             Coordinates (Angstroms)
 Number     Number       Type             X           Y           Z
 ---------------------------------------------------------------------
      1          6           0        0.000000    0.000000   -0.009936
      2          8           0        0.000000    0.000000    1.139936
 ---------------------------------------------------------------------
 Stoichiometry    CO
 Framework group  C*V[C*(CO)]
 Deg. of freedom     1
 Full point group                 C*V     NOp   4
 RotChk:  IX=0 Diff= 0.00D+00
 Largest Abelian subgroup         C2V     NOp   4
 Largest concise Abelian subgroup C1      NOp   1
                         Standard orientation:                         
 ---------------------------------------------------------------------
 Center     Atomic      Atomic             Coordinates (Angstroms)
 Number     Number       Type             X           Y           Z
 ---------------------------------------------------------------------
      1          6           0        0.000000    0.000000   -0.657069
      2          8           0        0.000000    0.000000    0.492802
 ---------------------------------------------------------------------
 Rotational constants (GHZ):      0.0000000     55.7487066     55.7487066
 Leave Link  202 at Sun Apr 12 10:35:24 2020, MaxMem=  1879048192 cpu:         0.1
 (Enter /home/programs/G09_D/g09/l301.exe)
 Basis read from rwf:  (5D, 7F)
 No pseudopotential information found on rwf file.
 There are    16 symmetry adapted cartesian basis functions of A1  symmetry.
 There are     2 symmetry adapted cartesian basis functions of A2  symmetry.
 There are     6 symmetry adapted cartesian basis functions of B1  symmetry.
 There are     6 symmetry adapted cartesian basis functions of B2  symmetry.
 There are    14 symmetry adapted basis functions of A1  symmetry.
 There are     2 symmetry adapted basis functions of A2  symmetry.
 There are     6 symmetry adapted basis functions of B1  symmetry.
 There are     6 symmetry adapted basis functions of B2  symmetry.
    28 basis functions,    56 primitive gaussians,    30 cartesian basis functions
     7 alpha electrons        7 beta electrons
       nuclear repulsion energy        22.0898710712 Hartrees.
 IExCor=  404 DFT=T Ex=B Corr=P86 ExCW=0 ScaHFX=  0.000000
 ScaDFX=  1.000000  1.000000  1.000000  1.000000 ScalE2=  1.000000  1.000000
 IRadAn=      5 IRanWt=     -1 IRanGd=            0 ICorTp=0 IEmpDi=  4
 NAtoms=    2 NActive=    2 NUniq=    2 SFac= 1.00D+00 NAtFMM=   60 NAOKFM=F Big=F
 Integral buffers will be    131072 words long.
 Raffenetti 2 integral format.
 Two-electron integral symmetry is turned on.
 No density basis found on file   724.
 Leave Link  301 at Sun Apr 12 10:35:24 2020, MaxMem=  1879048192 cpu:         0.5
 (Enter /home/programs/G09_D/g09/l302.exe)
 NPDir=0 NMtPBC=     1 NCelOv=     1 NCel=       1 NClECP=     1 NCelD=      1
         NCelK=      1 NCelE2=     1 NClLst=     1 CellRange=     0.0.
 One-electron integrals computed using PRISM.
 NBasis=    28 RedAO= T EigKep=  3.18D-02  NBF=    14     2     6     6
 NBsUse=    28 1.00D-06 EigRej= -1.00D+00 NBFU=    14     2     6     6
 Precomputing XC quadrature grid using
 IXCGrd= 4 IRadAn=           5 IRanWt=          -1 IRanGd=           0 AccXCQ= 0.00D+00.
 Generated NRdTot=       0 NPtTot=           0 NUsed=           0 NTot=          32
 NSgBfM=    30    30    30    30    30 MxSgAt=     2 MxSgA2=     2.
 Leave Link  302 at Sun Apr 12 10:35:25 2020, MaxMem=  1879048192 cpu:         1.1
 (Enter /home/programs/G09_D/g09/l303.exe)
 DipDrv:  MaxL=1.
 Leave Link  303 at Sun Apr 12 10:35:25 2020, MaxMem=  1879048192 cpu:         0.2
 (Enter /home/programs/G09_D/g09/l401.exe)
 Initial guess from the checkpoint file:  "/state/partition1/stuart_2020-04-12-1035_14436/Gau-25926.chk"
 B after Tr=     0.000000    0.000000    0.000000
         Rot=    1.000000    0.000000    0.000000    0.000000 Ang=   0.00 deg.
 Guess basis will be translated and rotated to current coordinates.
 JPrj=2 DoOrth=T DoCkMO=T.
 Initial guess orbital symmetries:
       Occupied  (SG) (SG) (SG) (SG) (PI) (PI) (SG)
       Virtual   (SG) (SG) (SG) (SG) (DLTA) (SG) (DLTA) (SG) (SG)
                 (DLTA) (DLTA) (PI) (PI) (PI) (PI) (PI) (PI) (PI)
                 (PI) (PI) (PI)
 The electronic state of the initial guess is 1-SG.
 Leave Link  401 at Sun Apr 12 10:35:25 2020, MaxMem=  1879048192 cpu:         0.6
 (Enter /home/programs/G09_D/g09/l502.exe)
 Closed shell SCF:
 Using DIIS extrapolation, IDIIS=  1040.
 Integral symmetry usage will be decided dynamically.
 Keep J ints in memory in symmetry-blocked form, NReq=968469.
 IVT=       21746 IEndB=       21746 NGot=  1879048192 MDV=  1879001938
 LenX=  1879001938 LenY=  1879000597
 Requested convergence on RMS density matrix=1.00D-08 within 128 cycles.
 Requested convergence on MAX density matrix=1.00D-06.
 Requested convergence on             energy=1.00D-06.
 No special actions if energy rises.
 FoFCou: FMM=F IPFlag=           0 FMFlag=           0 FMFlg1=           0
         NFxFlg=           0 DoJE=F BraDBF=F KetDBF=F FulRan=T
         wScrn=  0.000000 ICntrl=     600 IOpCl=  0 I1Cent=           0 NGrid=           0
         NMat0=    1 NMatS0=    406 NMatT0=    0 NMatD0=    1 NMtDS0=    0 NMtDT0=    0
 Petite list used in FoFCou.

 Cycle   1  Pass 1  IDiag  1:
 E= -113.305193150150    
 DIIS: error= 2.59D-05 at cycle   1 NSaved=   1.
 NSaved= 1 IEnMin= 1 EnMin= -113.305193150150     IErMin= 1 ErrMin= 2.59D-05
 ErrMax= 2.59D-05  0.00D+00 EMaxC= 1.00D-01 BMatC= 2.86D-08 BMatP= 2.86D-08
 IDIUse=1 WtCom= 1.00D+00 WtEn= 0.00D+00
 Coeff-Com:  0.100D+01
 Coeff:      0.100D+01
 Gap=     0.960 Goal=   None    Shift=    0.000
 RMSDP=8.75D-06 MaxDP=6.19D-05              OVMax= 7.21D-05

 Cycle   2  Pass 1  IDiag  1:
 E= -113.305193167929     Delta-E=       -0.000000017778 Rises=F Damp=F
 DIIS: error= 2.31D-05 at cycle   2 NSaved=   2.
 NSaved= 2 IEnMin= 2 EnMin= -113.305193167929     IErMin= 2 ErrMin= 2.31D-05
 ErrMax= 2.31D-05  0.00D+00 EMaxC= 1.00D-01 BMatC= 1.78D-08 BMatP= 2.86D-08
 IDIUse=1 WtCom= 1.00D+00 WtEn= 0.00D+00
 Coeff-Com:  0.422D+00 0.578D+00
 Coeff:      0.422D+00 0.578D+00
 Gap=     0.256 Goal=   None    Shift=    0.000
 RMSDP=4.88D-06 MaxDP=6.06D-05 DE=-1.78D-08 OVMax= 7.98D-05

 Cycle   3  Pass 1  IDiag  1:
 E= -113.305193162380     Delta-E=        0.000000005549 Rises=F Damp=F
 DIIS: error= 3.48D-05 at cycle   3 NSaved=   3.
 NSaved= 3 IEnMin= 2 EnMin= -113.305193167929     IErMin= 2 ErrMin= 2.31D-05
 ErrMax= 3.48D-05  0.00D+00 EMaxC= 1.00D-01 BMatC= 2.37D-08 BMatP= 1.78D-08
 IDIUse=1 WtCom= 1.00D+00 WtEn= 0.00D+00
 Coeff-Com:  0.144D+00 0.495D+00 0.362D+00
 Coeff:      0.144D+00 0.495D+00 0.362D+00
 Gap=     0.256 Goal=   None    Shift=    0.000
 RMSDP=3.59D-06 MaxDP=3.40D-05 DE= 5.55D-09 OVMax= 5.77D-05

 Cycle   4  Pass 1  IDiag  1:
 E= -113.305193180182     Delta-E=       -0.000000017802 Rises=F Damp=F
 DIIS: error= 6.38D-06 at cycle   4 NSaved=   4.
 NSaved= 4 IEnMin= 4 EnMin= -113.305193180182     IErMin= 4 ErrMin= 6.38D-06
 ErrMax= 6.38D-06  0.00D+00 EMaxC= 1.00D-01 BMatC= 7.46D-10 BMatP= 1.78D-08
 IDIUse=1 WtCom= 1.00D+00 WtEn= 0.00D+00
 Coeff-Com:  0.570D-02 0.133D+00 0.202D+00 0.659D+00
 Coeff:      0.570D-02 0.133D+00 0.202D+00 0.659D+00
 Gap=     0.256 Goal=   None    Shift=    0.000
 RMSDP=7.62D-07 MaxDP=1.03D-05 DE=-1.78D-08 OVMax= 9.34D-06

 Cycle   5  Pass 1  IDiag  1:
 E= -113.305193180877     Delta-E=       -0.000000000695 Rises=F Damp=F
 DIIS: error= 8.88D-08 at cycle   5 NSaved=   5.
 NSaved= 5 IEnMin= 5 EnMin= -113.305193180877     IErMin= 5 ErrMin= 8.88D-08
 ErrMax= 8.88D-08  0.00D+00 EMaxC= 1.00D-01 BMatC= 2.13D-13 BMatP= 7.46D-10
 IDIUse=1 WtCom= 1.00D+00 WtEn= 0.00D+00
 Coeff-Com:  0.724D-05 0.526D-02 0.128D-01 0.408D-01 0.941D+00
 Coeff:      0.724D-05 0.526D-02 0.128D-01 0.408D-01 0.941D+00
 Gap=     0.256 Goal=   None    Shift=    0.000
 RMSDP=1.27D-08 MaxDP=1.20D-07 DE=-6.95D-10 OVMax= 1.58D-07

 Cycle   6  Pass 1  IDiag  1:
 E= -113.305193180877     Delta-E=        0.000000000000 Rises=F Damp=F
 DIIS: error= 9.46D-09 at cycle   6 NSaved=   6.
 NSaved= 6 IEnMin= 6 EnMin= -113.305193180877     IErMin= 6 ErrMin= 9.46D-09
 ErrMax= 9.46D-09  0.00D+00 EMaxC= 1.00D-01 BMatC= 1.80D-15 BMatP= 2.13D-13
 IDIUse=1 WtCom= 1.00D+00 WtEn= 0.00D+00
 Coeff-Com: -0.295D-05 0.889D-03 0.218D-02 0.737D-02 0.205D+00 0.785D+00
 Coeff:     -0.295D-05 0.889D-03 0.218D-02 0.737D-02 0.205D+00 0.785D+00
 Gap=     0.256 Goal=   None    Shift=    0.000
 RMSDP=1.04D-09 MaxDP=1.61D-08 DE=-1.42D-13 OVMax= 1.07D-08

 SCF Done:  E(RB-P86) =  -113.305193181     A.U. after    6 cycles
            NFock=  6  Conv=0.10D-08     -V/T= 2.0072
 KE= 1.124918189534D+02 PE=-3.100298597450D+02 EE= 6.214297653947D+01
 Leave Link  502 at Sun Apr 12 10:35:25 2020, MaxMem=  1879048192 cpu:         1.4
 (Enter /home/programs/G09_D/g09/l701.exe)
 Compute integral first derivatives.
 ... and contract with generalized density number  0.
 Leave Link  701 at Sun Apr 12 10:35:25 2020, MaxMem=  1879048192 cpu:         1.1
 (Enter /home/programs/G09_D/g09/l702.exe)
 L702 exits ... SP integral derivatives will be done elsewhere.
 Leave Link  702 at Sun Apr 12 10:35:25 2020, MaxMem=  1879048192 cpu:         0.1
 (Enter /home/programs/G09_D/g09/l703.exe)
 Compute integral first derivatives, UseDBF=F ICtDFT=           0.
 Integral derivatives from FoFJK, PRISM(SPDF).
 Calling FoFJK, ICntrl=      2527 FMM=F ISym2X=1 I1Cent= 0 IOpClX= 0 NMat=1 NMatS=1 NMatT=0.
 FoFJK:  IHMeth= 1 ICntrl=    2527 DoSepK=F KAlg= 0 I1Cent=   0 FoldK=F
 IRaf=         0 NMat=   1 IRICut=       1 DoRegI=T DoRafI=F ISym2E= 1.
 FoFCou: FMM=F IPFlag=           0 FMFlag=      100000 FMFlg1=         800
         NFxFlg=           0 DoJE=F BraDBF=F KetDBF=F FulRan=T
         wScrn=  0.000000 ICntrl=    2527 IOpCl=  0 I1Cent=           0 NGrid=           0
         NMat0=    1 NMatS0=      1 NMatT0=    0 NMatD0=    1 NMtDS0=    0 NMtDT0=    0
 Petite list used in FoFCou.
 Leave Link  703 at Sun Apr 12 10:35:25 2020, MaxMem=  1879048192 cpu:         1.2
 (Enter /home/programs/G09_D/g09/l716.exe)
 Dipole        = 0.00000000D+00 0.00000000D+00 5.80848145D-02
 ***** Axes restored to original set *****
 -------------------------------------------------------------------
 Center     Atomic                   Forces (Hartrees/Bohr)
 Number     Number              X              Y              Z
 -------------------------------------------------------------------
      1        6           0.000000000    0.000000000   -0.000005712
      2        8           0.000000000    0.000000000    0.000005712
 -------------------------------------------------------------------
 Cartesian Forces:  Max     0.000005712 RMS     0.000003298
 Leave Link  716 at Sun Apr 12 10:35:25 2020, MaxMem=  1879048192 cpu:         0.2
 (Enter /home/programs/G09_D/g09/l103.exe)

 GradGradGradGradGradGradGradGradGradGradGradGradGradGradGradGradGradGrad
 Berny optimization.
 Using GDIIS optimizer.
 Red2BG is reusing G-inverse.
 Internal  Forces:  Max     0.000005712 RMS     0.000005712
 Search for a local minimum.
 Step number   4 out of a maximum of   20
 All quantities printed in internal units (Hartrees-Bohrs-Radians)
 Swapping is turned off.
 Update second derivatives using D2CorX and points    4
 DE= -1.04D-07 DEPred=-1.03D-07 R= 1.01D+00
 Trust test= 1.01D+00 RLast= 4.17D-04 DXMaxT set to 3.00D-01
 The second derivative matrix:
                          R1
           R1           1.17734
 ITU=  0  1
     Eigenvalues ---    1.17734
 Cut down GDIIS permanently because of the redundancy. E 1
     Eigenvalues ---    1.17734
 Angle between quadratic step and forces=   0.00 degrees.
 Linear search not attempted -- option 19 set.
 Iteration  1 RMS(Cart)=  0.00000343 RMS(Int)=  0.00000000
 Iteration  2 RMS(Cart)=  0.00000000 RMS(Int)=  0.00000000
 ITry= 1 IFail=0 DXMaxC= 2.43D-06 DCOld= 1.00D+10 DXMaxT= 3.00D-01 DXLimC= 3.00D+00 Rises=F
 ClnCor:  largest displacement from symmetrization is 0.00D+00 for atom     0.
 Variable       Old X    -DE/DX   Delta X   Delta X   Delta X     New X
                                 (Linear)    (Quad)   (Total)
    R1        2.17294   0.00001   0.00000   0.00000   0.00000   2.17295
         Item               Value     Threshold  Converged?
 Maximum Force            0.000006     0.000450     YES
 RMS     Force            0.000006     0.000300     YES
 Maximum Displacement     0.000002     0.001800     YES
 RMS     Displacement     0.000003     0.001200     YES
 Predicted change in Energy=-1.385387D-11
 Optimization completed.
    -- Stationary point found.
                           ----------------------------
                           !   Optimized Parameters   !
                           ! (Angstroms and Degrees)  !
 --------------------------                            --------------------------
 ! Name  Definition              Value          Derivative Info.                !
 --------------------------------------------------------------------------------
 ! R1    R(1,2)                  1.1499         -DE/DX =    0.0                 !
 --------------------------------------------------------------------------------
 Lowest energy point so far.  Saving SCF results.
 GradGradGradGradGradGradGradGradGradGradGradGradGradGradGradGradGradGrad

 Largest change from initial coordinates is atom    1       0.009 Angstoms.
 Leave Link  103 at Sun Apr 12 10:35:25 2020, MaxMem=  1879048192 cpu:         0.0
 (Enter /home/programs/G09_D/g09/l202.exe)
                          Input orientation:                          
 ---------------------------------------------------------------------
 Center     Atomic      Atomic             Coordinates (Angstroms)
 Number     Number       Type             X           Y           Z
 ---------------------------------------------------------------------
      1          6           0        0.000000    0.000000   -0.009936
      2          8           0        0.000000    0.000000    1.139936
 ---------------------------------------------------------------------
 Stoichiometry    CO
 Framework group  C*V[C*(CO)]
 Deg. of freedom     1
 Full point group                 C*V     NOp   4
 RotChk:  IX=0 Diff= 0.00D+00
 Largest Abelian subgroup         C2V     NOp   4
 Largest concise Abelian subgroup C1      NOp   1
                         Standard orientation:                         
 ---------------------------------------------------------------------
 Center     Atomic      Atomic             Coordinates (Angstroms)
 Number     Number       Type             X           Y           Z
 ---------------------------------------------------------------------
      1          6           0        0.000000    0.000000   -0.657069
      2          8           0        0.000000    0.000000    0.492802
 ---------------------------------------------------------------------
 Rotational constants (GHZ):      0.0000000     55.7487066     55.7487066
 Leave Link  202 at Sun Apr 12 10:35:25 2020, MaxMem=  1879048192 cpu:         0.1
 (Enter /home/programs/G09_D/g09/l601.exe)
 Copying SCF densities to generalized density rwf, IOpCl= 0 IROHF=0.

 **********************************************************************

            Population analysis using the SCF density.

 **********************************************************************

 Orbital symmetries:
       Occupied  (SG) (SG) (SG) (SG) (PI) (PI) (SG)
       Virtual   (PI) (PI) (SG) (PI) (PI) (SG) (SG) (SG) (PI) (PI)
                 (DLTA) (DLTA) (SG) (PI) (PI) (DLTA) (DLTA) (SG)
                 (PI) (PI) (SG)
 The electronic state is 1-SG.
 Alpha  occ. eigenvalues --  -18.89564 -10.02414  -1.05987  -0.50817  -0.41782
 Alpha  occ. eigenvalues --   -0.41782  -0.32133
 Alpha virt. eigenvalues --   -0.06506  -0.06506   0.23587   0.47742   0.47742
 Alpha virt. eigenvalues --    0.55041   0.67414   0.77999   0.85802   0.85802
 Alpha virt. eigenvalues --    1.41417   1.41417   1.44587   1.46004   1.46004
 Alpha virt. eigenvalues --    1.85764   1.85764   2.31104   2.50322   2.50322
 Alpha virt. eigenvalues --    2.84961
          Condensed to atoms (all electrons):
               1          2
     1  C    5.303698   0.560698
     2  O    0.560698   7.574906
 Mulliken charges:
               1
     1  C    0.135604
     2  O   -0.135604
 Sum of Mulliken charges =   0.00000
 Mulliken charges with hydrogens summed into heavy atoms:
               1
     1  C    0.135604
     2  O   -0.135604
 Electronic spatial extent (au):  <R**2>=             39.7540
 Charge=              0.0000 electrons
 Dipole moment (field-independent basis, Debye):
    X=              0.0000    Y=              0.0000    Z=              0.1476  Tot=              0.1476
 Quadrupole moment (field-independent basis, Debye-Ang):
   XX=             -9.8964   YY=             -9.8964   ZZ=            -11.9034
   XY=              0.0000   XZ=              0.0000   YZ=              0.0000
 Traceless Quadrupole moment (field-independent basis, Debye-Ang):
   XX=              0.6690   YY=              0.6690   ZZ=             -1.3380
   XY=              0.0000   XZ=              0.0000   YZ=              0.0000
 Octapole moment (field-independent basis, Debye-Ang**2):
  XXX=              0.0000  YYY=              0.0000  ZZZ=              5.7877  XYY=              0.0000
  XXY=              0.0000  XXZ=              1.1310  XZZ=              0.0000  YZZ=              0.0000
  YYZ=              1.1310  XYZ=              0.0000
 Hexadecapole moment (field-independent basis, Debye-Ang**3):
 XXXX=             -7.8569 YYYY=             -7.8569 ZZZZ=            -34.6375 XXXY=              0.0000
 XXXZ=              0.0000 YYYX=              0.0000 YYYZ=              0.0000 ZZZX=              0.0000
 ZZZY=              0.0000 XXYY=             -2.6190 XXZZ=             -6.5648 YYZZ=             -6.5648
 XXYZ=              0.0000 YYXZ=              0.0000 ZZXY=              0.0000
 N-N= 2.208987107125D+01 E-N=-3.100298595778D+02  KE= 1.124918189534D+02
 Symmetry A1   KE= 1.043799230371D+02
 Symmetry A2   KE= 0.000000000000D+00
 Symmetry B1   KE= 4.055947958140D+00
 Symmetry B2   KE= 4.055947958140D+00
 No NMR shielding tensors so no spin-rotation constants.
 Leave Link  601 at Sun Apr 12 10:35:26 2020, MaxMem=  1879048192 cpu:         1.1
 (Enter /home/programs/G09_D/g09/l9999.exe)

 Test job not archived.
 1\1\GINC-COMP03\FOpt\RBP86\Gen\C1O1\STUART\12-Apr-2020\0\\#p bp86 opt 
 IOp(1/19=11) gen int=(grid=ultrafine) freq=noraman\\Rab\\0,1\C,0.,0.,-
 0.0099355877\O,0.,0.,1.1399355877\\Version=EM64L-G09RevD.01\State=1-SG
 \HF=-113.3051932\RMSD=1.043e-09\RMSF=3.298e-06\Dipole=0.,0.,0.0580848\
 Quadrupole=0.4973825,0.4973825,-0.9947649,0.,0.,0.\PG=C*V [C*(C1O1)]\\
 @


 AS FAR AS THE LAWS OF MATHEMATICS REFER TO REALITY,
 THEY ARE NOT CERTAIN; AND AS FAR AS THEY ARE CERTAIN,
 THEY DO NOT REFER TO REALITY.

                                         -- ALBERT EINSTEIN
 Leave Link 9999 at Sun Apr 12 10:35:26 2020, MaxMem=  1879048192 cpu:         0.2
 Job cpu time:       0 days  0 hours  0 minutes 33.6 seconds.
 File lengths (MBytes):  RWF=      5 Int=      0 D2E=      0 Chk=      1 Scr=      1
 Normal termination of Gaussian 09 at Sun Apr 12 10:35:26 2020.
 (Enter /home/programs/G09_D/g09/l1.exe)
 Link1:  Proceeding to internal job step number  2.
 ----------------------------------------------------------------------
 #P Geom=AllCheck Guess=TCheck SCRF=Check Test GenChk RBP86/ChkBas Freq
 ----------------------------------------------------------------------
 1/10=4,29=7,30=1,38=1,40=1/1,3;
 2/12=2,40=1/2;
 3/5=7,6=2,11=2,14=-4,16=1,25=1,30=1,67=1,70=2,71=2,74=404,75=-5,82=7,116=1,140=1/1,2,3;
 4/5=101/1;
 5/5=2,98=1/2;
 8/6=4,10=90,11=11/1;
 11/6=1,8=1,9=11,15=111,16=1/1,2,10;
 10/6=1/2;
 6/7=2,8=2,9=2,10=2,18=1,28=1/1;
 7/8=1,10=1,25=1/1,2,3,16;
 1/10=4,30=1/3;
 99//99;
 Leave Link    1 at Sun Apr 12 10:35:26 2020, MaxMem=  1879048192 cpu:         0.4
 (Enter /home/programs/G09_D/g09/l101.exe)
 Structure from the checkpoint file:  "/state/partition1/stuart_2020-04-12-1035_14436/Gau-25926.chk"
 ---
 Rab
 ---
 Charge =  0 Multiplicity = 1
 Redundant internal coordinates found in file.
 C,0,0.,0.,-0.0099355877
 O,0,0.,0.,1.1399355877
 Recover connectivity data from disk.
 NAtoms=      2 NQM=        2 NQMF=       0 NMMI=      0 NMMIF=      0
                NMic=       0 NMicF=      0.
                    Isotopes and Nuclear Properties:
 (Nuclear quadrupole moments (NQMom) in fm**2, nuclear magnetic moments (NMagM)
  in nuclear magnetons)

  Atom         1           2
 IAtWgt=          12          16
 AtmWgt=  12.0000000  15.9949146
 NucSpn=           0           0
 AtZEff=  -3.6000000  -5.6000000
 NQMom=    0.0000000   0.0000000
 NMagM=    0.0000000   0.0000000
 AtZNuc=   6.0000000   8.0000000
 Leave Link  101 at Sun Apr 12 10:35:26 2020, MaxMem=  1879048192 cpu:         2.1
 (Enter /home/programs/G09_D/g09/l103.exe)

 GradGradGradGradGradGradGradGradGradGradGradGradGradGradGradGradGradGrad
 Berny optimization.
 Initialization pass.
                           ----------------------------
                           !    Initial Parameters    !
                           ! (Angstroms and Degrees)  !
 --------------------------                            --------------------------
 ! Name  Definition              Value          Derivative Info.                !
 --------------------------------------------------------------------------------
 ! R1    R(1,2)                  1.1499         calculate D2E/DX2 analytically  !
 --------------------------------------------------------------------------------
 Trust Radius=3.00D-01 FncErr=1.00D-07 GrdErr=1.00D-07
 Number of steps in this run=      2 maximum allowed number of steps=      2.
 GradGradGradGradGradGradGradGradGradGradGradGradGradGradGradGradGradGrad

 Leave Link  103 at Sun Apr 12 10:35:26 2020, MaxMem=  1879048192 cpu:         0.0
 (Enter /home/programs/G09_D/g09/l202.exe)
                          Input orientation:                          
 ---------------------------------------------------------------------
 Center     Atomic      Atomic             Coordinates (Angstroms)
 Number     Number       Type             X           Y           Z
 ---------------------------------------------------------------------
      1          6           0        0.000000    0.000000   -0.009936
      2          8           0        0.000000    0.000000    1.139936
 ---------------------------------------------------------------------
 Stoichiometry    CO
 Framework group  C*V[C*(CO)]
 Deg. of freedom     1
 Full point group                 C*V     NOp   4
 RotChk:  IX=0 Diff= 0.00D+00
 Largest Abelian subgroup         C2V     NOp   4
 Largest concise Abelian subgroup C1      NOp   1
                         Standard orientation:                         
 ---------------------------------------------------------------------
 Center     Atomic      Atomic             Coordinates (Angstroms)
 Number     Number       Type             X           Y           Z
 ---------------------------------------------------------------------
      1          6           0        0.000000    0.000000   -0.657069
      2          8           0        0.000000    0.000000    0.492802
 ---------------------------------------------------------------------
 Rotational constants (GHZ):      0.0000000     55.7487066     55.7487066
 Leave Link  202 at Sun Apr 12 10:35:26 2020, MaxMem=  1879048192 cpu:         0.0
 (Enter /home/programs/G09_D/g09/l301.exe)
 Basis read from chk: "/state/partition1/stuart_2020-04-12-1035_14436/Gau-25926.c
 hk" (5D, 7F)
 No pseudopotential information found on chk file.
 There are    16 symmetry adapted cartesian basis functions of A1  symmetry.
 There are     2 symmetry adapted cartesian basis functions of A2  symmetry.
 There are     6 symmetry adapted cartesian basis functions of B1  symmetry.
 There are     6 symmetry adapted cartesian basis functions of B2  symmetry.
 There are    14 symmetry adapted basis functions of A1  symmetry.
 There are     2 symmetry adapted basis functions of A2  symmetry.
 There are     6 symmetry adapted basis functions of B1  symmetry.
 There are     6 symmetry adapted basis functions of B2  symmetry.
    28 basis functions,    56 primitive gaussians,    30 cartesian basis functions
     7 alpha electrons        7 beta electrons
       nuclear repulsion energy        22.0898710712 Hartrees.
 IExCor=  404 DFT=T Ex=B Corr=P86 ExCW=0 ScaHFX=  0.000000
 ScaDFX=  1.000000  1.000000  1.000000  1.000000 ScalE2=  1.000000  1.000000
 IRadAn=      5 IRanWt=     -1 IRanGd=            0 ICorTp=0 IEmpDi=  4
 NAtoms=    2 NActive=    2 NUniq=    2 SFac= 1.00D+00 NAtFMM=   60 NAOKFM=F Big=F
 Integral buffers will be    131072 words long.
 Raffenetti 2 integral format.
 Two-electron integral symmetry is turned on.
 No density basis found on file 20724.
 Leave Link  301 at Sun Apr 12 10:35:26 2020, MaxMem=  1879048192 cpu:         0.5
 (Enter /home/programs/G09_D/g09/l302.exe)
 NPDir=0 NMtPBC=     1 NCelOv=     1 NCel=       1 NClECP=     1 NCelD=      1
         NCelK=      1 NCelE2=     1 NClLst=     1 CellRange=     0.0.
[...]
 Precomputing XC quadrature grid using
 IXCGrd= 4 IRadAn=           5 IRanWt=          -1 IRanGd=           0 AccXCQ= 0.00D+00.
 Generated NRdTot=       0 NPtTot=           0 NUsed=           0 NTot=          32
 NSgBfM=    30    30    30    30    30 MxSgAt=     2 MxSgA2=     2.
 Leave Link  302 at Sun Apr 12 10:35:27 2020, MaxMem=  1879048192 cpu:         1.1
 (Enter /home/programs/G09_D/g09/l303.exe)
 DipDrv:  MaxL=1.
 Leave Link  303 at Sun Apr 12 10:35:27 2020, MaxMem=  1879048192 cpu:         0.2
 (Enter /home/programs/G09_D/g09/l401.exe)
 Initial guess from the checkpoint file:  "/state/partition1/stuart_2020-04-12-1035_14436/Gau-25926.chk"
 B after Tr=     0.000000    0.000000    0.000000
         Rot=    1.000000    0.000000    0.000000    0.000000 Ang=   0.00 deg.
 Guess basis will be translated and rotated to current coordinates.
 JPrj=2 DoOrth=T DoCkMO=T.
 Initial guess orbital symmetries:
       Occupied  (SG) (SG) (SG) (SG) (PI) (PI) (SG)
       Virtual   (PI) (PI) (SG) (PI) (PI) (SG) (SG) (SG) (PI) (PI)
                 (DLTA) (DLTA) (SG) (PI) (PI) (DLTA) (DLTA) (SG)
                 (PI) (PI) (SG)
 The electronic state of the initial guess is 1-SG.
 Leave Link  401 at Sun Apr 12 10:35:27 2020, MaxMem=  1879048192 cpu:         0.6
 (Enter /home/programs/G09_D/g09/l502.exe)
 Closed shell SCF:
 Using DIIS extrapolation, IDIIS=  1040.
 Integral symmetry usage will be decided dynamically.
 Keep J ints in memory in symmetry-blocked form, NReq=968469.
 IVT=       21746 IEndB=       21746 NGot=  1879048192 MDV=  1879001938
 LenX=  1879001938 LenY=  1879000597
 Requested convergence on RMS density matrix=1.00D-08 within 128 cycles.
 Requested convergence on MAX density matrix=1.00D-06.
 Requested convergence on             energy=1.00D-06.
 No special actions if energy rises.
 FoFCou: FMM=F IPFlag=           0 FMFlag=           0 FMFlg1=           0
         NFxFlg=           0 DoJE=F BraDBF=F KetDBF=F FulRan=T
         wScrn=  0.000000 ICntrl=     600 IOpCl=  0 I1Cent=           0 NGrid=           0
         NMat0=    1 NMatS0=    406 NMatT0=    0 NMatD0=    1 NMtDS0=    0 NMtDT0=    0
 Petite list used in FoFCou.

 Cycle   1  Pass 1  IDiag  1:
 E= -113.305193180877    
 DIIS: error= 1.83D-09 at cycle   1 NSaved=   1.
 NSaved= 1 IEnMin= 1 EnMin= -113.305193180877     IErMin= 1 ErrMin= 1.83D-09
 ErrMax= 1.83D-09  0.00D+00 EMaxC= 1.00D-01 BMatC= 6.20D-17 BMatP= 6.20D-17
 IDIUse=1 WtCom= 1.00D+00 WtEn= 0.00D+00
 Coeff-Com:  0.100D+01
 Coeff:      0.100D+01
 Gap=     0.256 Goal=   None    Shift=    0.000
 RMSDP=7.18D-10 MaxDP=6.76D-09              OVMax= 1.12D-08

 SCF Done:  E(RB-P86) =  -113.305193181     A.U. after    1 cycles
            NFock=  1  Conv=0.72D-09     -V/T= 2.0072
 KE= 1.124918188533D+02 PE=-3.100298594777D+02 EE= 6.214297637229D+01
 Leave Link  502 at Sun Apr 12 10:35:27 2020, MaxMem=  1879048192 cpu:         1.0
 (Enter /home/programs/G09_D/g09/l801.exe)
 Range of M.O.s used for correlation:     1    28
 NBasis=    28 NAE=     7 NBE=     7 NFC=     0 NFV=     0
 NROrb=     28 NOA=     7 NOB=     7 NVA=    21 NVB=    21
 Leave Link  801 at Sun Apr 12 10:35:27 2020, MaxMem=  1879048192 cpu:         0.2
 (Enter /home/programs/G09_D/g09/l1101.exe)
 Using compressed storage, NAtomX=     2.
 Will process      3 centers per pass.
 Leave Link 1101 at Sun Apr 12 10:35:28 2020, MaxMem=  1879048192 cpu:         1.2
 (Enter /home/programs/G09_D/g09/l1102.exe)
 Symmetrizing basis deriv contribution to polar:
 IMax=3 JMax=2 DiffMx= 0.00D+00
 Leave Link 1102 at Sun Apr 12 10:35:28 2020, MaxMem=  1879048192 cpu:         0.2
 (Enter /home/programs/G09_D/g09/l1110.exe)
 Forming Gx(P) for the SCF density, NAtomX=     2.
 Integral derivatives from FoFJK, PRISM(SPDF).
 Do as many integral derivatives as possible in FoFJK.
 G2DrvN: MDV=    1879048072.
 G2DrvN: will do     3 centers at a time, making    1 passes.
 Calling FoFCou, ICntrl=  3507 FMM=F I1Cent=   0 AccDes= 0.00D+00.
 FoFJK:  IHMeth= 1 ICntrl=    3507 DoSepK=F KAlg= 0 I1Cent=   0 FoldK=F
 IRaf=         0 NMat=   1 IRICut=       1 DoRegI=T DoRafI=F ISym2E= 1.
 FoFCou: FMM=F IPFlag=           0 FMFlag=      100000 FMFlg1=           0
         NFxFlg=           0 DoJE=F BraDBF=F KetDBF=F FulRan=T
         wScrn=  0.000000 ICntrl=    3507 IOpCl=  0 I1Cent=           0 NGrid=           0
         NMat0=    1 NMatS0=      1 NMatT0=    0 NMatD0=    1 NMtDS0=    0 NMtDT0=    0
 Petite list used in FoFCou.
 End of G2Drv F.D. properties file   721 does not exist.
 End of G2Drv F.D. properties file   722 does not exist.
 End of G2Drv F.D. properties file   788 does not exist.
 Leave Link 1110 at Sun Apr 12 10:35:29 2020, MaxMem=  1879048192 cpu:         1.6
 (Enter /home/programs/G09_D/g09/l1002.exe)
 Minotr:  Closed shell wavefunction.
          IDoAtm=11
          Direct CPHF calculation.
          Differentiating once with respect to electric field.
                with respect to dipole field.
          Differentiating once with respect to nuclear coordinates.
          Using symmetry in CPHF.
          Requested convergence is 1.0D-08 RMS, and 1.0D-07 maximum.
          Secondary convergence is 1.0D-12 RMS, and 1.0D-12 maximum.
          NewPWx=T KeepS1=F KeepF1=F KeepIn=T MapXYZ=F SortEE=F KeepMc=T.
          MDV=    1879048140 using IRadAn=       1.
 Generate precomputed XC quadrature information.
 Keep J ints in memory in symmetry-blocked form, NReq=944452.
 FoFCou: FMM=F IPFlag=           0 FMFlag=           0 FMFlg1=           0
         NFxFlg=           0 DoJE=F BraDBF=F KetDBF=F FulRan=T
         wScrn=  0.000000 ICntrl=     600 IOpCl=  0 I1Cent=           0 NGrid=           0
         NMat0=    1 NMatS0=    406 NMatT0=    0 NMatD0=    1 NMtDS0=    0 NMtDT0=    0
 Petite list used in FoFCou.
          Solving linear equations simultaneously, MaxMat=       0.
          There are     9 degrees of freedom in the 1st order CPHF.  IDoFFX=6 NUNeed=     3.
      6 vectors produced by pass  0 Test12= 1.63D-15 1.11D-08 XBig12= 1.82D+01 2.78D+00.
 AX will form     6 AO Fock derivatives at one time.
      6 vectors produced by pass  1 Test12= 1.63D-15 1.11D-08 XBig12= 1.48D+01 2.11D+00.
      6 vectors produced by pass  2 Test12= 1.63D-15 1.11D-08 XBig12= 9.97D-02 1.40D-01.
      6 vectors produced by pass  3 Test12= 1.63D-15 1.11D-08 XBig12= 3.35D-03 3.58D-02.
      6 vectors produced by pass  4 Test12= 1.63D-15 1.11D-08 XBig12= 2.85D-06 1.02D-03.
      4 vectors produced by pass  5 Test12= 1.63D-15 1.11D-08 XBig12= 8.97D-10 1.26D-05.
      1 vectors produced by pass  6 Test12= 1.63D-15 1.11D-08 XBig12= 4.70D-14 9.70D-08.
 InvSVY:  IOpt=1 It=  1 EMax= 1.11D-16
 Solved reduced A of dimension    35 with     6 vectors.
 FullF1:  Do perturbations    1 to     3.
 Isotropic polarizability for W=    0.000000        9.71 Bohr**3.
 End of Minotr F.D. properties file   721 does not exist.
 End of Minotr F.D. properties file   722 does not exist.
 End of Minotr F.D. properties file   788 does not exist.
 Leave Link 1002 at Sun Apr 12 10:35:29 2020, MaxMem=  1879048192 cpu:         2.2
 (Enter /home/programs/G09_D/g09/l601.exe)
 Copying SCF densities to generalized density rwf, IOpCl= 0 IROHF=0.

 **********************************************************************

            Population analysis using the SCF density.

 **********************************************************************

 Orbital symmetries:
       Occupied  (SG) (SG) (SG) (SG) (PI) (PI) (SG)
       Virtual   (PI) (PI) (SG) (PI) (PI) (SG) (SG) (SG) (PI) (PI)
                 (DLTA) (DLTA) (SG) (PI) (PI) (DLTA) (DLTA) (SG)
                 (PI) (PI) (SG)
 The electronic state is 1-SG.
 Alpha  occ. eigenvalues --  -18.89564 -10.02414  -1.05987  -0.50817  -0.41782
 Alpha  occ. eigenvalues --   -0.41782  -0.32133
 Alpha virt. eigenvalues --   -0.06506  -0.06506   0.23587   0.47742   0.47742
 Alpha virt. eigenvalues --    0.55041   0.67414   0.77999   0.85802   0.85802
 Alpha virt. eigenvalues --    1.41417   1.41417   1.44587   1.46004   1.46004
 Alpha virt. eigenvalues --    1.85764   1.85764   2.31104   2.50322   2.50322
 Alpha virt. eigenvalues --    2.84961
          Condensed to atoms (all electrons):
               1          2
     1  C    5.303698   0.560698
     2  O    0.560698   7.574906
 Mulliken charges:
               1
     1  C    0.135604
     2  O   -0.135604
 Sum of Mulliken charges =   0.00000
 Mulliken charges with hydrogens summed into heavy atoms:
               1
     1  C    0.135604
     2  O   -0.135604
 APT charges:
               1
     1  C    0.192123
     2  O   -0.192123
 Sum of APT charges =   0.00000
 APT charges with hydrogens summed into heavy atoms:
               1
     1  C    0.192123
     2  O   -0.192123
 Electronic spatial extent (au):  <R**2>=             39.7540
 Charge=              0.0000 electrons
 Dipole moment (field-independent basis, Debye):
    X=              0.0000    Y=              0.0000    Z=              0.1476  Tot=              0.1476
 Quadrupole moment (field-independent basis, Debye-Ang):
   XX=             -9.8964   YY=             -9.8964   ZZ=            -11.9034
   XY=              0.0000   XZ=              0.0000   YZ=              0.0000
 Traceless Quadrupole moment (field-independent basis, Debye-Ang):
   XX=              0.6690   YY=              0.6690   ZZ=             -1.3380
   XY=              0.0000   XZ=              0.0000   YZ=              0.0000
 Octapole moment (field-independent basis, Debye-Ang**2):
  XXX=              0.0000  YYY=              0.0000  ZZZ=              5.7877  XYY=              0.0000
  XXY=              0.0000  XXZ=              1.1310  XZZ=              0.0000  YZZ=              0.0000
  YYZ=              1.1310  XYZ=              0.0000
 Hexadecapole moment (field-independent basis, Debye-Ang**3):
 XXXX=             -7.8569 YYYY=             -7.8569 ZZZZ=            -34.6375 XXXY=              0.0000
 XXXZ=              0.0000 YYYX=              0.0000 YYYZ=              0.0000 ZZZX=              0.0000
 ZZZY=              0.0000 XXYY=             -2.6190 XXZZ=             -6.5648 YYZZ=             -6.5648
 XXYZ=              0.0000 YYXZ=              0.0000 ZZXY=              0.0000
 N-N= 2.208987107125D+01 E-N=-3.100298593583D+02  KE= 1.124918188533D+02
 Symmetry A1   KE= 1.043799230162D+02
 Symmetry A2   KE=-1.916353169379D-52
 Symmetry B1   KE= 4.055947918535D+00
 Symmetry B2   KE= 4.055947918535D+00
  Exact polarizability:   8.099   0.000   8.099   0.000   0.000  12.942
 Approx polarizability:  13.270   0.000  13.270   0.000   0.000  29.474
 No NMR shielding tensors so no spin-rotation constants.
 Leave Link  601 at Sun Apr 12 10:35:30 2020, MaxMem=  1879048192 cpu:         1.1
 (Enter /home/programs/G09_D/g09/l701.exe)
 Compute integral second derivatives.
 ... and contract with generalized density number  0.
 Leave Link  701 at Sun Apr 12 10:35:30 2020, MaxMem=  1879048192 cpu:         1.3
 (Enter /home/programs/G09_D/g09/l702.exe)
 L702 exits ... SP integral derivatives will be done elsewhere.
 Leave Link  702 at Sun Apr 12 10:35:30 2020, MaxMem=  1879048192 cpu:         0.1
 (Enter /home/programs/G09_D/g09/l703.exe)
 Compute integral second derivatives, UseDBF=F ICtDFT=           0.
 Integral derivatives from FoFJK, PRISM(SPDF).
 Calling FoFJK, ICntrl=    100527 FMM=F ISym2X=1 I1Cent= 0 IOpClX= 0 NMat=1 NMatS=1 NMatT=0.
 FoFJK:  IHMeth= 1 ICntrl=  100527 DoSepK=F KAlg= 0 I1Cent=   0 FoldK=F
 IRaf=         0 NMat=   1 IRICut=       1 DoRegI=T DoRafI=F ISym2E= 1.
 FoFCou: FMM=F IPFlag=           0 FMFlag=      100000 FMFlg1=         800
         NFxFlg=           0 DoJE=F BraDBF=F KetDBF=F FulRan=T
         wScrn=  0.000000 ICntrl=  100527 IOpCl=  0 I1Cent=           0 NGrid=           0
         NMat0=    1 NMatS0=      1 NMatT0=    0 NMatD0=    1 NMtDS0=    0 NMtDT0=    0
 Petite list used in FoFCou.
 Leave Link  703 at Sun Apr 12 10:35:30 2020, MaxMem=  1879048192 cpu:         2.7
 (Enter /home/programs/G09_D/g09/l716.exe)
 Dipole        = 0.00000000D+00 0.00000000D+00 5.80849130D-02
 Polarizability= 8.09891392D+00-1.10190888D-25 8.09891392D+00
                -9.90540110D-14-7.04955841D-14 1.29416108D+01
 Full mass-weighted force constant matrix:
 Low frequencies ---    0.0008    0.0008    0.0016    2.2962    2.2962 2116.9384
 Diagonal vibrational polarizability:
        0.0000000       0.0000000       0.3387027
 Harmonic frequencies (cm**-1), IR intensities (KM/Mole), Raman scattering
 activities (A**4/AMU), depolarization ratios for plane and unpolarized
 incident light, reduced masses (AMU), force constants (mDyne/A),
 and normal coordinates:
                      1
                     SG
 Frequencies --   2116.9384
 Red. masses --     13.4388
 Frc consts  --     35.4834
 IR Inten    --     56.4030
  Atom  AN      X      Y      Z
     1   6     0.00   0.00   0.80
     2   8     0.00   0.00  -0.60

 -------------------
 - Thermochemistry -
 -------------------
 Temperature   298.150 Kelvin.  Pressure   1.00000 Atm.
 Atom     1 has atomic number  6 and mass  12.00000
 Atom     2 has atomic number  8 and mass  15.99491
 Molecular mass:    27.99491 amu.
 Principal axes and moments of inertia in atomic units:
                           1         2         3
     Eigenvalues --     0.00000  32.37279  32.37279
           X            0.00000   0.00000   1.00000
           Y            0.00000   1.00000   0.00000
           Z            1.00000   0.00000   0.00000
 This molecule is a prolate symmetric top.
 Rotational symmetry number  1.
 Rotational temperature (Kelvin)      2.67551
 Rotational constant (GHZ):          55.748707
 Zero-point vibrational energy      12662.1 (Joules/Mol)
                                    3.02632 (Kcal/Mol)
 Vibrational temperatures:   3045.80
          (Kelvin)
 
 Zero-point correction=                           0.004823 (Hartree/Particle)
 Thermal correction to Energy=                    0.007184
 Thermal correction to Enthalpy=                  0.008128
 Thermal correction to Gibbs Free Energy=        -0.014335
 Sum of electronic and zero-point Energies=           -113.300370
 Sum of electronic and thermal Energies=              -113.298010
 Sum of electronic and thermal Enthalpies=            -113.297065
 Sum of electronic and thermal Free Energies=         -113.319529
 
                     E (Thermal)             CV                S
                      KCal/Mol        Cal/Mol-Kelvin    Cal/Mol-Kelvin
 Total                    4.508              4.976             47.278
 Electronic               0.000              0.000              0.000
 Translational            0.889              2.981             35.923
 Rotational               0.592              1.987             11.354
 Vibrational              3.027              0.008              0.001
                       Q            Log10(Q)             Ln(Q)
 Total Bot       0.392478D+07          6.593816         15.182822
 Total V=0       0.648810D+09          8.812118         20.290651
 Vib (Bot)       0.604942D-02         -2.218286         -5.107792
 Vib (V=0)       0.100004D+01          0.000016          0.000037
 Electronic      0.100000D+01          0.000000          0.000000
 Translational   0.582202D+07          6.765074         15.577158
 Rotational      0.111437D+03          2.047028          4.713456
 ***** Axes restored to original set *****
 -------------------------------------------------------------------
 Center     Atomic                   Forces (Hartrees/Bohr)
 Number     Number              X              Y              Z
 -------------------------------------------------------------------
      1        6           0.000000000    0.000000000   -0.000005700
      2        8           0.000000000    0.000000000    0.000005700
 -------------------------------------------------------------------
 Cartesian Forces:  Max     0.000005700 RMS     0.000003291
 Force constants in Cartesian coordinates: 
                1             2             3             4             5 
      1  0.136807D-05
      2  0.000000D+00  0.136807D-05
      3  0.000000D+00  0.000000D+00  0.116276D+01
      4 -0.136807D-05  0.000000D+00  0.000000D+00  0.136807D-05
      5  0.000000D+00 -0.136807D-05  0.000000D+00  0.000000D+00  0.136807D-05
      6  0.000000D+00  0.000000D+00 -0.116276D+01  0.000000D+00  0.000000D+00
                6 
      6  0.116276D+01
 FormGI is forming the generalized inverse of G from B-inverse, IUseBI=4.
 Force constants in internal coordinates: 
                1 
      1  0.116276D+01
 Leave Link  716 at Sun Apr 12 10:35:30 2020, MaxMem=  1879048192 cpu:         0.2
 (Enter /home/programs/G09_D/g09/l103.exe)

 GradGradGradGradGradGradGradGradGradGradGradGradGradGradGradGradGradGrad
 Berny optimization.
 Red2BG is reusing G-inverse.
 Internal  Forces:  Max     0.000005700 RMS     0.000005700
 Search for a local minimum.
 Step number   1 out of a maximum of    2
 All quantities printed in internal units (Hartrees-Bohrs-Radians)
 Second derivative matrix not updated -- analytic derivatives used.
 The second derivative matrix:
                          R1
           R1           1.16276
 ITU=  0
     Eigenvalues ---    1.16276
 Angle between quadratic step and forces=   0.00 degrees.
 Linear search not attempted -- first point.
 Iteration  1 RMS(Cart)=  0.00000347 RMS(Int)=  0.00000000
 Iteration  2 RMS(Cart)=  0.00000000 RMS(Int)=  0.00000000
 ITry= 1 IFail=0 DXMaxC= 2.45D-06 DCOld= 1.00D+10 DXMaxT= 3.00D-01 DXLimC= 3.00D+00 Rises=F
 ClnCor:  largest displacement from symmetrization is 0.00D+00 for atom     0.
 Variable       Old X    -DE/DX   Delta X   Delta X   Delta X     New X
                                 (Linear)    (Quad)   (Total)
    R1        2.17294   0.00001   0.00000   0.00000   0.00000   2.17295
         Item               Value     Threshold  Converged?
 Maximum Force            0.000006     0.000450     YES
 RMS     Force            0.000006     0.000300     YES
 Maximum Displacement     0.000002     0.001800     YES
 RMS     Displacement     0.000003     0.001200     YES
 Predicted change in Energy=-1.397094D-11
 Optimization completed.
    -- Stationary point found.
                           ----------------------------
                           !   Optimized Parameters   !
                           ! (Angstroms and Degrees)  !
 --------------------------                            --------------------------
 ! Name  Definition              Value          Derivative Info.                !
 --------------------------------------------------------------------------------
 ! R1    R(1,2)                  1.1499         -DE/DX =    0.0                 !
 --------------------------------------------------------------------------------
 GradGradGradGradGradGradGradGradGradGradGradGradGradGradGradGradGradGrad

 Leave Link  103 at Sun Apr 12 10:35:30 2020, MaxMem=  1879048192 cpu:         0.0
 (Enter /home/programs/G09_D/g09/l9999.exe)

 Test job not archived.
 1\1\GINC-COMP03\Freq\RBP86\Gen\C1O1\STUART\12-Apr-2020\0\\#P Geom=AllC
 heck Guess=TCheck SCRF=Check Test GenChk RBP86/ChkBas Freq\\Rab\\0,1\C
 ,0.,0.,-0.0099355877\O,0.,0.,1.1399355877\\Version=EM64L-G09RevD.01\St
 ate=1-SG\HF=-113.3051932\RMSD=7.181e-10\RMSF=3.291e-06\ZeroPoint=0.004
 8227\Thermal=0.0071836\Dipole=0.,0.,0.0580849\DipoleDeriv=-0.0267267,0
 .,0.,0.,-0.0267267,0.,0.,0.,0.6298214,0.0267267,0.,0.,0.,0.0267267,0.,
 0.,0.,-0.6298214\Polar=8.0989139,0.,8.0989139,0.,0.,12.9416108\PG=C*V 
 [C*(C1O1)]\NImag=0\\0.00000137,0.,0.00000137,0.,0.,1.16276491,-0.00000
 137,0.,0.,0.00000137,0.,-0.00000137,0.,0.,0.00000137,0.,0.,-1.16276491
 ,0.,0.,1.16276491\\0.,0.,0.00000570,0.,0.,-0.00000570\\\@


 LOVE IS BLIND, THAT'S WHY ALL THE WORLD LOVES A LOUVER.
 Job cpu time:       0 days  0 hours  0 minutes 17.1 seconds.
 File lengths (MBytes):  RWF=      5 Int=      0 D2E=      0 Chk=      1 Scr=      1
 Normal termination of Gaussian 09 at Sun Apr 12 10:35:30 2020.
