 Entering Gaussian System, Link 0=g09
 Input=ru_znphos_co2_cis_benzene.com
 Output=ru_znphos_co2_cis_benzene.log
 Initial command:
 /home/programs/G09_D/g09/l1.exe "/state/partition1/stuart_2020-04-11-1414_23583/Gau-13615.inp" -scrdir="/state/partition1/stuart_2020-04-11-1414_23583/"
 Entering Link 1 = /home/programs/G09_D/g09/l1.exe PID=     13618.
  
 Copyright (c) 1988,1990,1992,1993,1995,1998,2003,2009,2013,
            Gaussian, Inc.  All Rights Reserved.
  
 This is part of the Gaussian(R) 09 program.  It is based on
 the Gaussian(R) 03 system (copyright 2003, Gaussian, Inc.),
 the Gaussian(R) 98 system (copyright 1998, Gaussian, Inc.),
 the Gaussian(R) 94 system (copyright 1995, Gaussian, Inc.),
 the Gaussian 92(TM) system (copyright 1992, Gaussian, Inc.),
 the Gaussian 90(TM) system (copyright 1990, Gaussian, Inc.),
 the Gaussian 88(TM) system (copyright 1988, Gaussian, Inc.),
 the Gaussian 86(TM) system (copyright 1986, Carnegie Mellon
 University), and the Gaussian 82(TM) system (copyright 1983,
 Carnegie Mellon University). Gaussian is a federally registered
 trademark of Gaussian, Inc.
  
 This software contains proprietary and confidential information,
 including trade secrets, belonging to Gaussian, Inc.
  
 This software is provided under written license and may be
 used, copied, transmitted, or stored only in accord with that
 written license.
  
 The following legend is applicable only to US Government
 contracts under FAR:
  
                    RESTRICTED RIGHTS LEGEND
  
 Use, reproduction and disclosure by the US Government is
 subject to restrictions as set forth in subparagraphs (a)
 and (c) of the Commercial Computer Software - Restricted
 Rights clause in FAR 52.227-19.
  
 Gaussian, Inc.
 340 Quinnipiac St., Bldg. 40, Wallingford CT 06492
  
  
 ---------------------------------------------------------------
 Warning -- This program may not be used in any manner that
 competes with the business of Gaussian, Inc. or will provide
 assistance to any competitor of Gaussian, Inc.  The licensee
 of this program is prohibited from giving any competitor of
 Gaussian, Inc. access to this program.  By using this program,
 the user acknowledges that Gaussian, Inc. is engaged in the
 business of creating and licensing software in the field of
 computational chemistry and represents and warrants to the
 licensee that it is not a competitor of Gaussian, Inc. and that
 it will not use this program in any manner prohibited above.
 ---------------------------------------------------------------
  

 Cite this work as:
 Gaussian 09, Revision D.01,
 M. J. Frisch, G. W. Trucks, H. B. Schlegel, G. E. Scuseria, 
 M. A. Robb, J. R. Cheeseman, G. Scalmani, V. Barone, B. Mennucci, 
 G. A. Petersson, H. Nakatsuji, M. Caricato, X. Li, H. P. Hratchian, 
 A. F. Izmaylov, J. Bloino, G. Zheng, J. L. Sonnenberg, M. Hada, 
 M. Ehara, K. Toyota, R. Fukuda, J. Hasegawa, M. Ishida, T. Nakajima, 
 Y. Honda, O. Kitao, H. Nakai, T. Vreven, J. A. Montgomery, Jr., 
 J. E. Peralta, F. Ogliaro, M. Bearpark, J. J. Heyd, E. Brothers, 
 K. N. Kudin, V. N. Staroverov, T. Keith, R. Kobayashi, J. Normand, 
 K. Raghavachari, A. Rendell, J. C. Burant, S. S. Iyengar, J. Tomasi, 
 M. Cossi, N. Rega, J. M. Millam, M. Klene, J. E. Knox, J. B. Cross, 
 V. Bakken, C. Adamo, J. Jaramillo, R. Gomperts, R. E. Stratmann, 
 O. Yazyev, A. J. Austin, R. Cammi, C. Pomelli, J. W. Ochterski, 
 R. L. Martin, K. Morokuma, V. G. Zakrzewski, G. A. Voth, 
 P. Salvador, J. J. Dannenberg, S. Dapprich, A. D. Daniels, 
 O. Farkas, J. B. Foresman, J. V. Ortiz, J. Cioslowski, 
 and D. J. Fox, Gaussian, Inc., Wallingford CT, 2013.
 
 ******************************************
 Gaussian 09:  EM64L-G09RevD.01 24-Apr-2013
                11-Apr-2020 
 ******************************************
 %nproc=8
 Will use up to    8 processors via shared memory.
 %mem=14GB
 ---------------------------------------------------------------------
 #p bp86 gen pseudo=read int=grid=ultrafine scrf=(pcm,solvent=benzene)
 ---------------------------------------------------------------------
 1/38=1/1;
 2/12=2,17=6,18=5,40=1/2;
 3/5=7,11=2,16=1,17=8,25=1,30=1,70=2201,72=12,74=404,75=-5/1,2,3;
 4//1;
 5/5=2,38=5,53=12/2;
 6/7=2,8=2,9=2,10=2,28=1/1;
 99/5=1,9=1/99;
 Leave Link    1 at Sat Apr 11 14:14:38 2020, MaxMem=  1879048192 cpu:         0.6
 (Enter /home/programs/G09_D/g09/l101.exe)
 -------------------------------
 Ru (PPh3)3 H4 from high temp MD
 -------------------------------
 Symbolic Z-matrix:
 Charge =  0 Multiplicity = 1
 Ru                    0.0112   -0.5069   -0.30177 
 Zn                    0.12405   2.17559  -0.04406 
 P                     2.34087  -0.21881  -0.06703 
 P                    -2.33061  -0.19198  -0.03709 
 O                     0.07464  -3.54971   0.02596 
 O                    -0.02443   0.52358  -3.14463 
 C                     0.05476  -2.37033   0.08552 
 C                    -0.01811   0.2655   -1.98669 
 C                     2.01669   2.54377  -0.47214 
 C                     2.95006   1.47636  -0.55561 
 C                     4.28788   1.68966  -0.94437 
 H                     4.98761   0.84945  -1.00953 
 C                     4.72171   2.98547  -1.26717 
 H                     5.75659   3.15059  -1.58574 
 C                     3.82452   4.06135  -1.18318 
 H                     4.15837   5.07431  -1.43578 
 C                     2.49469   3.83889  -0.78305 
 H                     1.81443   4.69794  -0.72989 
 C                    -1.67815   2.48398   0.69167 
 C                    -1.99734   3.72813   1.29023 
 H                    -1.24667   4.5283    1.3066 
 C                    -3.25054   3.97738   1.87435 
 H                    -3.46292   4.95422   2.32378 
 C                    -4.2254    2.96743   1.89352 
 H                    -5.20148   3.14654   2.35723 
 C                    -3.94053   1.71718   1.3244 
 H                    -4.69247   0.92108   1.36299 
 C                    -2.68695   1.48156   0.71752 
 C                     2.77162  -0.33874   1.74778 
 C                     3.25996   0.76906   2.47088 
 H                     3.43299   1.72022   1.9588 
 C                     3.52596   0.65436   3.84598 
 H                     3.90323   1.52238   4.39699 
 C                     3.31343  -0.56389   4.50908 
 H                     3.52233  -0.65054   5.58054 
 C                     2.8312   -1.67328   3.79295 
 H                     2.66474  -2.62817   4.30267 
 C                     2.55334  -1.56172   2.42296 
 H                     2.16948  -2.42759   1.87426 
 C                     3.49901  -1.42389  -0.88224 
 C                     4.74442  -1.77576  -0.32021 
 H                     5.04608  -1.35936   0.64653 
 C                     5.59253  -2.67102  -0.99199 
 H                     6.5559   -2.94272  -0.54747 
 C                     5.20517  -3.2192   -2.22567 
 H                     5.86661  -3.9203   -2.74541 
 C                     3.96429  -2.87503  -2.78664 
 H                     3.65334  -3.30784  -3.74311 
 C                     3.1107   -1.98476  -2.11725 
 H                     2.1342   -1.72971  -2.54235 
 C                    -3.35026  -0.27907  -1.59297 
 C                    -4.28923   0.70784  -1.95219 
 H                    -4.45118   1.57217  -1.30093 
 C                    -5.01283   0.58823  -3.15112 
 H                    -5.73552   1.36395  -3.42581 
 C                    -4.80922  -0.51545  -3.99341 
 H                    -5.37315  -0.60446  -4.92786 
 C                    -3.87169  -1.5011   -3.64015 
 H                    -3.70005  -2.35923  -4.29832 
 C                    -3.13909  -1.38107  -2.45075 
 H                    -2.38959  -2.13604  -2.18883 
 C                    -3.21803  -1.36291   1.11607 
 C                    -4.50848  -1.86452   0.85317 
 H                    -5.02337  -1.59038  -0.07306 
 C                    -5.13291  -2.72464   1.77303 
 H                    -6.13306  -3.11472   1.55601 
 C                    -4.47859  -3.08428   2.96111 
 H                    -4.96615  -3.75649   3.67493 
 C                    -3.19182  -2.58599   3.22846 
 H                    -2.67235  -2.86869   4.15011 
 C                    -2.56246  -1.735     2.30883 
 H                    -1.54992  -1.36513   2.50906 
 
 NAtoms=     72 NQM=       72 NQMF=       0 NMMI=      0 NMMIF=      0
                NMic=       0 NMicF=      0.
                    Isotopes and Nuclear Properties:
 (Nuclear quadrupole moments (NQMom) in fm**2, nuclear magnetic moments (NMagM)
  in nuclear magnetons)

  Atom         1           2           3           4           5           6           7           8           9          10
 IAtWgt=         102          64          31          31          16          16          12          12          12          12
 AtmWgt= 101.9037000  63.9291454  30.9737634  30.9737634  15.9949146  15.9949146  12.0000000  12.0000000  12.0000000  12.0000000
 NucSpn=           0           0           1           1           0           0           0           0           0           0
 AtZEff=   0.0000000   0.0000000   0.0000000   0.0000000   0.0000000   0.0000000   0.0000000   0.0000000   0.0000000   0.0000000
 NQMom=    0.0000000   0.0000000   0.0000000   0.0000000   0.0000000   0.0000000   0.0000000   0.0000000   0.0000000   0.0000000
 NMagM=    0.0000000   0.0000000   1.1316000   1.1316000   0.0000000   0.0000000   0.0000000   0.0000000   0.0000000   0.0000000
 AtZNuc=  44.0000000  30.0000000  15.0000000  15.0000000   8.0000000   8.0000000   6.0000000   6.0000000   6.0000000   6.0000000

  Atom        11          12          13          14          15          16          17          18          19          20
 IAtWgt=          12           1          12           1          12           1          12           1          12          12
 AtmWgt=  12.0000000   1.0078250  12.0000000   1.0078250  12.0000000   1.0078250  12.0000000   1.0078250  12.0000000  12.0000000
 NucSpn=           0           1           0           1           0           1           0           1           0           0
 AtZEff=   0.0000000   0.0000000   0.0000000   0.0000000   0.0000000   0.0000000   0.0000000   0.0000000   0.0000000   0.0000000
 NQMom=    0.0000000   0.0000000   0.0000000   0.0000000   0.0000000   0.0000000   0.0000000   0.0000000   0.0000000   0.0000000
 NMagM=    0.0000000   2.7928460   0.0000000   2.7928460   0.0000000   2.7928460   0.0000000   2.7928460   0.0000000   0.0000000
 AtZNuc=   6.0000000   1.0000000   6.0000000   1.0000000   6.0000000   1.0000000   6.0000000   1.0000000   6.0000000   6.0000000

  Atom        21          22          23          24          25          26          27          28          29          30
 IAtWgt=           1          12           1          12           1          12           1          12          12          12
 AtmWgt=   1.0078250  12.0000000   1.0078250  12.0000000   1.0078250  12.0000000   1.0078250  12.0000000  12.0000000  12.0000000
 NucSpn=           1           0           1           0           1           0           1           0           0           0
 AtZEff=   0.0000000   0.0000000   0.0000000   0.0000000   0.0000000   0.0000000   0.0000000   0.0000000   0.0000000   0.0000000
 NQMom=    0.0000000   0.0000000   0.0000000   0.0000000   0.0000000   0.0000000   0.0000000   0.0000000   0.0000000   0.0000000
 NMagM=    2.7928460   0.0000000   2.7928460   0.0000000   2.7928460   0.0000000   2.7928460   0.0000000   0.0000000   0.0000000
 AtZNuc=   1.0000000   6.0000000   1.0000000   6.0000000   1.0000000   6.0000000   1.0000000   6.0000000   6.0000000   6.0000000

  Atom        31          32          33          34          35          36          37          38          39          40
 IAtWgt=           1          12           1          12           1          12           1          12           1          12
 AtmWgt=   1.0078250  12.0000000   1.0078250  12.0000000   1.0078250  12.0000000   1.0078250  12.0000000   1.0078250  12.0000000
 NucSpn=           1           0           1           0           1           0           1           0           1           0
 AtZEff=   0.0000000   0.0000000   0.0000000   0.0000000   0.0000000   0.0000000   0.0000000   0.0000000   0.0000000   0.0000000
 NQMom=    0.0000000   0.0000000   0.0000000   0.0000000   0.0000000   0.0000000   0.0000000   0.0000000   0.0000000   0.0000000
 NMagM=    2.7928460   0.0000000   2.7928460   0.0000000   2.7928460   0.0000000   2.7928460   0.0000000   2.7928460   0.0000000
 AtZNuc=   1.0000000   6.0000000   1.0000000   6.0000000   1.0000000   6.0000000   1.0000000   6.0000000   1.0000000   6.0000000

  Atom        41          42          43          44          45          46          47          48          49          50
 IAtWgt=          12           1          12           1          12           1          12           1          12           1
 AtmWgt=  12.0000000   1.0078250  12.0000000   1.0078250  12.0000000   1.0078250  12.0000000   1.0078250  12.0000000   1.0078250
 NucSpn=           0           1           0           1           0           1           0           1           0           1
 AtZEff=   0.0000000   0.0000000   0.0000000   0.0000000   0.0000000   0.0000000   0.0000000   0.0000000   0.0000000   0.0000000
 NQMom=    0.0000000   0.0000000   0.0000000   0.0000000   0.0000000   0.0000000   0.0000000   0.0000000   0.0000000   0.0000000
 NMagM=    0.0000000   2.7928460   0.0000000   2.7928460   0.0000000   2.7928460   0.0000000   2.7928460   0.0000000   2.7928460
 AtZNuc=   6.0000000   1.0000000   6.0000000   1.0000000   6.0000000   1.0000000   6.0000000   1.0000000   6.0000000   1.0000000

  Atom        51          52          53          54          55          56          57          58          59          60
 IAtWgt=          12          12           1          12           1          12           1          12           1          12
 AtmWgt=  12.0000000  12.0000000   1.0078250  12.0000000   1.0078250  12.0000000   1.0078250  12.0000000   1.0078250  12.0000000
 NucSpn=           0           0           1           0           1           0           1           0           1           0
 AtZEff=   0.0000000   0.0000000   0.0000000   0.0000000   0.0000000   0.0000000   0.0000000   0.0000000   0.0000000   0.0000000
 NQMom=    0.0000000   0.0000000   0.0000000   0.0000000   0.0000000   0.0000000   0.0000000   0.0000000   0.0000000   0.0000000
 NMagM=    0.0000000   0.0000000   2.7928460   0.0000000   2.7928460   0.0000000   2.7928460   0.0000000   2.7928460   0.0000000
 AtZNuc=   6.0000000   6.0000000   1.0000000   6.0000000   1.0000000   6.0000000   1.0000000   6.0000000   1.0000000   6.0000000

  Atom        61          62          63          64          65          66          67          68          69          70
 IAtWgt=           1          12          12           1          12           1          12           1          12           1
 AtmWgt=   1.0078250  12.0000000  12.0000000   1.0078250  12.0000000   1.0078250  12.0000000   1.0078250  12.0000000   1.0078250
 NucSpn=           1           0           0           1           0           1           0           1           0           1
 AtZEff=   0.0000000   0.0000000   0.0000000   0.0000000   0.0000000   0.0000000   0.0000000   0.0000000   0.0000000   0.0000000
 NQMom=    0.0000000   0.0000000   0.0000000   0.0000000   0.0000000   0.0000000   0.0000000   0.0000000   0.0000000   0.0000000
 NMagM=    2.7928460   0.0000000   0.0000000   2.7928460   0.0000000   2.7928460   0.0000000   2.7928460   0.0000000   2.7928460
 AtZNuc=   1.0000000   6.0000000   6.0000000   1.0000000   6.0000000   1.0000000   6.0000000   1.0000000   6.0000000   1.0000000

  Atom        71          72
 IAtWgt=          12           1
 AtmWgt=  12.0000000   1.0078250
 NucSpn=           0           1
 AtZEff=   0.0000000   0.0000000
 NQMom=    0.0000000   0.0000000
 NMagM=    0.0000000   2.7928460
 AtZNuc=   6.0000000   1.0000000
 Leave Link  101 at Sat Apr 11 14:14:38 2020, MaxMem=  1879048192 cpu:         1.0
 (Enter /home/programs/G09_D/g09/l202.exe)
 Stoichiometry    C38H28O2P2RuZn
 Framework group  C1[X(C38H28O2P2RuZn)]
 Deg. of freedom   210
 Full point group                 C1      NOp   1
 Largest Abelian subgroup         C1      NOp   1
 Largest concise Abelian subgroup C1      NOp   1
                         Standard orientation:                         
 ---------------------------------------------------------------------
 Center     Atomic      Atomic             Coordinates (Angstroms)
 Number     Number       Type             X           Y           Z
 ---------------------------------------------------------------------
      1         44           0        0.011201   -0.506900   -0.301770
      2         30           0        0.124051    2.175590   -0.044060
      3         15           0        2.340871   -0.218810   -0.067030
      4         15           0       -2.330609   -0.191980   -0.037090
      5          8           0        0.074641   -3.549710    0.025960
      6          8           0       -0.024429    0.523580   -3.144630
      7          6           0        0.054761   -2.370330    0.085520
      8          6           0       -0.018109    0.265500   -1.986690
      9          6           0        2.016691    2.543770   -0.472140
     10          6           0        2.950061    1.476360   -0.555610
     11          6           0        4.287881    1.689660   -0.944370
     12          1           0        4.987611    0.849450   -1.009530
     13          6           0        4.721710    2.985470   -1.267170
     14          1           0        5.756590    3.150590   -1.585740
     15          6           0        3.824520    4.061350   -1.183180
     16          1           0        4.158370    5.074310   -1.435780
     17          6           0        2.494690    3.838890   -0.783050
     18          1           0        1.814430    4.697940   -0.729890
     19          6           0       -1.678149    2.483980    0.691670
     20          6           0       -1.997340    3.728130    1.290230
     21          1           0       -1.246670    4.528300    1.306600
     22          6           0       -3.250540    3.977380    1.874350
     23          1           0       -3.462920    4.954220    2.323780
     24          6           0       -4.225400    2.967430    1.893520
     25          1           0       -5.201480    3.146540    2.357230
     26          6           0       -3.940529    1.717180    1.324400
     27          1           0       -4.692469    0.921080    1.362990
     28          6           0       -2.686949    1.481560    0.717520
     29          6           0        2.771621   -0.338740    1.747780
     30          6           0        3.259961    0.769060    2.470880
     31          1           0        3.432991    1.720220    1.958800
     32          6           0        3.525961    0.654360    3.845980
     33          1           0        3.903231    1.522380    4.396990
     34          6           0        3.313431   -0.563890    4.509080
     35          1           0        3.522331   -0.650540    5.580540
     36          6           0        2.831201   -1.673280    3.792950
     37          1           0        2.664741   -2.628170    4.302670
     38          6           0        2.553341   -1.561720    2.422960
     39          1           0        2.169481   -2.427590    1.874260
     40          6           0        3.499011   -1.423890   -0.882240
     41          6           0        4.744421   -1.775760   -0.320210
     42          1           0        5.046081   -1.359360    0.646530
     43          6           0        5.592531   -2.671020   -0.991990
     44          1           0        6.555901   -2.942720   -0.547470
     45          6           0        5.205171   -3.219200   -2.225670
     46          1           0        5.866611   -3.920300   -2.745410
     47          6           0        3.964291   -2.875030   -2.786640
     48          1           0        3.653341   -3.307840   -3.743110
     49          6           0        3.110701   -1.984760   -2.117250
     50          1           0        2.134201   -1.729710   -2.542350
     51          6           0       -3.350259   -0.279070   -1.592970
     52          6           0       -4.289229    0.707840   -1.952190
     53          1           0       -4.451179    1.572170   -1.300930
     54          6           0       -5.012829    0.588230   -3.151120
     55          1           0       -5.735519    1.363950   -3.425810
     56          6           0       -4.809219   -0.515450   -3.993410
     57          1           0       -5.373149   -0.604460   -4.927860
     58          6           0       -3.871689   -1.501100   -3.640150
     59          1           0       -3.700049   -2.359230   -4.298320
     60          6           0       -3.139089   -1.381070   -2.450750
     61          1           0       -2.389589   -2.136040   -2.188830
     62          6           0       -3.218029   -1.362910    1.116070
     63          6           0       -4.508479   -1.864520    0.853170
     64          1           0       -5.023369   -1.590380   -0.073060
     65          6           0       -5.132909   -2.724640    1.773030
     66          1           0       -6.133059   -3.114720    1.556010
     67          6           0       -4.478589   -3.084280    2.961110
     68          1           0       -4.966149   -3.756490    3.674930
     69          6           0       -3.191819   -2.585990    3.228460
     70          1           0       -2.672349   -2.868690    4.150110
     71          6           0       -2.562459   -1.735000    2.308830
     72          1           0       -1.549919   -1.365130    2.509060
 ---------------------------------------------------------------------
 Rotational constants (GHZ):      0.0900203      0.0531087      0.0510823
 Leave Link  202 at Sat Apr 11 14:14:38 2020, MaxMem=  1879048192 cpu:         0.0
 (Enter /home/programs/G09_D/g09/l301.exe)
 General basis read from cards:  (5D, 7F)
 Centers:       7      8      9     10     11     13     15     17     19     20
 Centers:      22     24     26     28     29     30     32     34     36     38
 Centers:      40     41     43     45     47     49     51     52     54     56
 Centers:      58     60     62     63     65     67     69     71
 6-31G**
 *****
 Centers:      12     14     16     18     21     23     25     27     31     33
 Centers:      35     37     39     42     44     46     48     50     53     55
 Centers:      57     59     61     64     66     68     70     72
 6-31G**
 *****
 Centers:       5      6
 6-31G**
 *****
 Centers:       3      4
 SDDALL
 D 1 1.
     Exponent=  3.8700000000D-01 Coefficients=  1.0000000000D+00
 *****
 Centers:       1
 SDDALL
 *****
 Centers:       2
 SDDALL
 *****
 ======================================================================================================
                                       Pseudopotential Parameters
 ======================================================================================================
  Center     Atomic      Valence      Angular      Power
  Number     Number     Electrons     Momentum     of R      Exponent        Coefficient   SO-Coeffient
 ======================================================================================================
    1         44           16
                                      G and up 
                                                     2        1.0000000        0.00000000    0.00000000
                                      S - G
                                                     2       11.1052690      209.82297100    0.00000000
                                                     2        5.4147450       30.65472600    0.00000000
                                      P - G
                                                     2        9.7712710      146.33618200    0.00000000
                                                     2        5.0739910       24.12787700    0.00000000
                                      D - G
                                                     2        7.6714230       67.51589700    0.00000000
                                                     2        4.1365650        9.87010400    0.00000000
                                      F - G
                                                     2       11.3600000      -28.34061600    0.00000000
                                                     2        5.6800000       -4.94462900    0.00000000
    2         30           20
                                      F and up 
                                                     2        1.0000000        0.00000000    0.00000000
                                      S - F
                                                     2       34.1500000      399.98728200    0.00000000
                                                     2       14.5900000       85.48565500    0.00000000
                                      P - F
                                                     2       39.7800000      277.14896000    0.00000000
                                                     2       14.9500000       69.05220500    0.00000000
                                      D - F
                                                     2       43.8000000      -34.14934900    0.00000000
                                                     2       14.9800000       -3.29183100    0.00000000
    3         15            5
                                      F and up 
                                                     2        1.0000000        0.00000000    0.00000000
                                      S - F
                                                     2        2.9405599       26.53226131    0.00000000
                                      P - F
                                                     2        2.2277126       11.49721021    0.00000000
                                      D - F
                                                     2        5.6617060      -16.77278000    0.00000000
    4         15            5
                                      F and up 
                                                     2        1.0000000        0.00000000    0.00000000
                                      S - F
                                                     2        2.9405599       26.53226131    0.00000000
                                      P - F
                                                     2        2.2277126       11.49721021    0.00000000
                                      D - F
                                                     2        5.6617060      -16.77278000    0.00000000
    5          8
                                   No pseudopotential on this center.
    6          8
                                   No pseudopotential on this center.
    7          6
                                   No pseudopotential on this center.
    8          6
                                   No pseudopotential on this center.
    9          6
                                   No pseudopotential on this center.
   10          6
                                   No pseudopotential on this center.
   11          6
                                   No pseudopotential on this center.
   12          1
                                   No pseudopotential on this center.
   13          6
                                   No pseudopotential on this center.
   14          1
                                   No pseudopotential on this center.
   15          6
                                   No pseudopotential on this center.
   16          1
                                   No pseudopotential on this center.
   17          6
                                   No pseudopotential on this center.
   18          1
                                   No pseudopotential on this center.
   19          6
                                   No pseudopotential on this center.
   20          6
                                   No pseudopotential on this center.
   21          1
                                   No pseudopotential on this center.
   22          6
                                   No pseudopotential on this center.
   23          1
                                   No pseudopotential on this center.
   24          6
                                   No pseudopotential on this center.
   25          1
                                   No pseudopotential on this center.
   26          6
                                   No pseudopotential on this center.
   27          1
                                   No pseudopotential on this center.
   28          6
                                   No pseudopotential on this center.
   29          6
                                   No pseudopotential on this center.
   30          6
                                   No pseudopotential on this center.
   31          1
                                   No pseudopotential on this center.
   32          6
                                   No pseudopotential on this center.
   33          1
                                   No pseudopotential on this center.
   34          6
                                   No pseudopotential on this center.
   35          1
                                   No pseudopotential on this center.
   36          6
                                   No pseudopotential on this center.
   37          1
                                   No pseudopotential on this center.
   38          6
                                   No pseudopotential on this center.
   39          1
                                   No pseudopotential on this center.
   40          6
                                   No pseudopotential on this center.
   41          6
                                   No pseudopotential on this center.
   42          1
                                   No pseudopotential on this center.
   43          6
                                   No pseudopotential on this center.
   44          1
                                   No pseudopotential on this center.
   45          6
                                   No pseudopotential on this center.
   46          1
                                   No pseudopotential on this center.
   47          6
                                   No pseudopotential on this center.
   48          1
                                   No pseudopotential on this center.
   49          6
                                   No pseudopotential on this center.
   50          1
                                   No pseudopotential on this center.
   51          6
                                   No pseudopotential on this center.
   52          6
                                   No pseudopotential on this center.
   53          1
                                   No pseudopotential on this center.
   54          6
                                   No pseudopotential on this center.
   55          1
                                   No pseudopotential on this center.
   56          6
                                   No pseudopotential on this center.
   57          1
                                   No pseudopotential on this center.
   58          6
                                   No pseudopotential on this center.
   59          1
                                   No pseudopotential on this center.
   60          6
                                   No pseudopotential on this center.
   61          1
                                   No pseudopotential on this center.
   62          6
                                   No pseudopotential on this center.
   63          6
                                   No pseudopotential on this center.
   64          1
                                   No pseudopotential on this center.
   65          6
                                   No pseudopotential on this center.
   66          1
                                   No pseudopotential on this center.
   67          6
                                   No pseudopotential on this center.
   68          1
                                   No pseudopotential on this center.
   69          6
                                   No pseudopotential on this center.
   70          1
                                   No pseudopotential on this center.
   71          6
                                   No pseudopotential on this center.
   72          1
                                   No pseudopotential on this center.
 ======================================================================================================
 Ernie: Thresh=  0.10000D-02 Tol=  0.10000D-05 Strict=F.
 There are   846 symmetry adapted cartesian basis functions of A   symmetry.
 There are   798 symmetry adapted basis functions of A   symmetry.
   798 basis functions,  1490 primitive gaussians,   846 cartesian basis functions
   159 alpha electrons      159 beta electrons
       nuclear repulsion energy      5467.0043119343 Hartrees.
 IExCor=  404 DFT=T Ex=B Corr=P86 ExCW=0 ScaHFX=  0.000000
 ScaDFX=  1.000000  1.000000  1.000000  1.000000 ScalE2=  1.000000  1.000000
 IRadAn=      5 IRanWt=     -1 IRanGd=            0 ICorTp=0 IEmpDi=  4
 NAtoms=   72 NActive=   72 NUniq=   72 SFac= 1.00D+00 NAtFMM=   60 NAOKFM=T Big=T
 Integral buffers will be    131072 words long.
 Raffenetti 2 integral format.
 Two-electron integral symmetry is turned on.
 ------------------------------------------------------------------------------
 Polarizable Continuum Model (PCM)
 =================================
 Model                : PCM (using non-symmetric T matrix).
 Atomic radii         : UFF (Universal Force Field).
 Polarization charges : Total charges.
 Charge compensation  : None.
 Solution method      : On-the-fly selection.
 Cavity type          : Scaled VdW (van der Waals Surface) (Alpha=1.100).
 Cavity algorithm     : GePol (No added spheres)
                        Default sphere list used, NSphG=   72.
                        Lebedev-Laikov grids with approx.  5.0 points / Ang**2.
                        Smoothing algorithm: Karplus/York (Gamma=1.0000).
                        Polarization charges: spherical gaussians, with
                                              point-specific exponents (IZeta= 3).
                        Self-potential: point-specific (ISelfS= 7).
                        Self-field    : sphere-specific E.n sum rule (ISelfD= 2).
 Solvent              : Benzene, Eps=   2.270600 Eps(inf)=   2.253301
 ------------------------------------------------------------------------------
 GePol: Number of generator spheres                  =      72
 GePol: Total number of spheres                      =      72
 GePol: Number of exposed spheres                    =      72 (100.00%)
 GePol: Number of points                             =    5527
 GePol: Average weight of points                     =       0.13
 GePol: Minimum weight of points                     =   0.47D-11
 GePol: Maximum weight of points                     =    0.21865
 GePol: Number of points with low weight             =     376
 GePol: Fraction of low-weight points (<1% of avg)   =       6.80%
 GePol: Cavity surface area                          =    699.704 Ang**2
 GePol: Cavity volume                                =    828.973 Ang**3
 Leave Link  301 at Sat Apr 11 14:14:39 2020, MaxMem=  1879048192 cpu:         0.9
 (Enter /home/programs/G09_D/g09/l302.exe)
 NPDir=0 NMtPBC=     1 NCelOv=     1 NCel=       1 NClECP=     1 NCelD=      1
         NCelK=      1 NCelE2=     1 NClLst=     1 CellRange=     0.0.
 One-electron integrals computed using PRISM.
   1 Symmetry operations used in ECPInt.
 ECPInt:  NShTT=   39903 NPrTT=  205958 LenC2=   29349 LenP2D=   83321.
 LDataN:  DoStor=T MaxTD1= 6 Len=  172
 NBasis=   798 RedAO= T EigKep=  4.52D-04  NBF=   798
 NBsUse=   798 1.00D-06 EigRej= -1.00D+00 NBFU=   798
 Precomputing XC quadrature grid using
 IXCGrd= 4 IRadAn=           5 IRanWt=          -1 IRanGd=           0 AccXCQ= 0.00D+00.
 Defaulting to unpruned grid for atomic number  44.
 Generated NRdTot=       0 NPtTot=           0 NUsed=           0 NTot=          32
 NSgBfM=   816   816   822   822   822 MxSgAt=    72 MxSgA2=    72.
 Leave Link  302 at Sat Apr 11 14:14:43 2020, MaxMem=  1879048192 cpu:        33.0
 (Enter /home/programs/G09_D/g09/l303.exe)
 DipDrv:  MaxL=1.
 Leave Link  303 at Sat Apr 11 14:14:44 2020, MaxMem=  1879048192 cpu:         1.3
 (Enter /home/programs/G09_D/g09/l401.exe)
 ExpMin= 1.00D-02 ExpMax= 5.48D+03 ExpMxC= 8.25D+02 IAcc=3 IRadAn=         5 AccDes= 0.00D+00
 Harris functional with IExCor=  404 and IRadAn=       5 diagonalized for initial guess.
 HarFok:  IExCor=  404 AccDes= 0.00D+00 IRadAn=         5 IDoV= 1 UseB2=F ITyADJ=14
 ICtDFT=  3500011 ScaDFX=  1.000000  1.000000  1.000000  1.000000
 Defaulting to unpruned grid for atomic number  44.
 Defaulting to unpruned grid for atomic number  44.
 Defaulting to unpruned grid for atomic number  44.
 Defaulting to unpruned grid for atomic number  44.
 Defaulting to unpruned grid for atomic number  44.
 Defaulting to unpruned grid for atomic number  44.
 Defaulting to unpruned grid for atomic number  44.
 Defaulting to unpruned grid for atomic number  44.
 FoFCou: FMM=F IPFlag=           0 FMFlag=      100000 FMFlg1=        2001
         NFxFlg=           0 DoJE=T BraDBF=F KetDBF=T FulRan=T
         wScrn=  0.000000 ICntrl=     500 IOpCl=  0 I1Cent=   200000004 NGrid=           0
         NMat0=    1 NMatS0=      1 NMatT0=    0 NMatD0=    1 NMtDS0=    0 NMtDT0=    0
 Petite list used in FoFCou.
 Harris En= -1951.40583118858    
 JPrj=0 DoOrth=F DoCkMO=F.
 Leave Link  401 at Sat Apr 11 14:15:00 2020, MaxMem=  1879048192 cpu:       118.4
 (Enter /home/programs/G09_D/g09/l502.exe)
 Closed shell SCF:
 Using DIIS extrapolation, IDIIS=  1040.
 Integral symmetry usage will be decided dynamically.
 IVT=     2178766 IEndB=     2178766 NGot=  1879048192 MDV=  1877602629
 LenX=  1877602629 LenY=  1876886067
 Requested convergence on RMS density matrix=1.00D-08 within 128 cycles.
 Requested convergence on MAX density matrix=1.00D-06.
 Requested convergence on             energy=1.00D-06.
 No special actions if energy rises.
 Fock matrices will be formed incrementally for  20 cycles.

 Cycle   1  Pass 1  IDiag  1:
 FoFJK:  IHMeth= 1 ICntrl=     500 DoSepK=F KAlg= 0 I1Cent=   0 FoldK=F
 IRaf= 810000000 NMat=   1 IRICut=       1 DoRegI=T DoRafI=F ISym2E= 0.
 FoFCou: FMM=T IPFlag=           0 FMFlag=      100000 FMFlg1=        2001
         NFxFlg=           0 DoJE=T BraDBF=F KetDBF=F FulRan=T
         wScrn=  0.000000 ICntrl=     500 IOpCl=  0 I1Cent=           0 NGrid=           0
         NMat0=    1 NMatS0=      1 NMatT0=    0 NMatD0=    1 NMtDS0=    0 NMtDT0=    0
 Symmetry not used in FoFCou.
 FMM levels:  10  Number of levels for PrismC:   9
 Defaulting to unpruned grid for atomic number  44.
 Defaulting to unpruned grid for atomic number  44.
 Defaulting to unpruned grid for atomic number  44.
 Defaulting to unpruned grid for atomic number  44.
 Defaulting to unpruned grid for atomic number  44.
 Defaulting to unpruned grid for atomic number  44.
 Defaulting to unpruned grid for atomic number  44.
 Defaulting to unpruned grid for atomic number  44.
 Inv3:  Mode=1 IEnd=    91643187.
 Iteration    1 A*A^-1 deviation from unit magnitude is 1.07D-14 for   4429.
 Iteration    1 A*A^-1 deviation from orthogonality  is 8.60D-15 for   4571   4219.
 Iteration    1 A^-1*A deviation from unit magnitude is 1.80D-14 for   3682.
 Iteration    1 A^-1*A deviation from orthogonality  is 1.71D-13 for   3897   3878.
 E= -1949.47841494513    
 DIIS: error= 3.96D-02 at cycle   1 NSaved=   1.
 NSaved= 1 IEnMin= 1 EnMin= -1949.47841494513     IErMin= 1 ErrMin= 3.96D-02
 ErrMax= 3.96D-02  0.00D+00 EMaxC= 1.00D-01 BMatC= 1.59D+00 BMatP= 1.59D+00
 IDIUse=3 WtCom= 6.04D-01 WtEn= 3.96D-01
 Coeff-Com:  0.100D+01
 Coeff-En:   0.100D+01
 Coeff:      0.100D+01
 Gap=     0.255 Goal=   None    Shift=    0.000
 GapD=    0.255 DampG=1.000 DampE=0.250 DampFc=0.2500 IDamp=-1.
 Damping current iteration by 2.50D-01
 RMSDP=5.79D-03 MaxDP=1.23D+00              OVMax= 6.32D-01

 Cycle   2  Pass 1  IDiag  1:
 RMSU=  1.45D-03    CP:  9.92D-01
 E= -1949.70926675444     Delta-E=       -0.230851809308 Rises=F Damp=T
 DIIS: error= 9.71D-03 at cycle   2 NSaved=   2.
 NSaved= 2 IEnMin= 2 EnMin= -1949.70926675444     IErMin= 2 ErrMin= 9.71D-03
 ErrMax= 9.71D-03  0.00D+00 EMaxC= 1.00D-01 BMatC= 2.01D-01 BMatP= 1.59D+00
 IDIUse=3 WtCom= 9.03D-01 WtEn= 9.71D-02
 Coeff-Com:  0.209D-01 0.979D+00
 Coeff-En:   0.396D+00 0.604D+00
 Coeff:      0.573D-01 0.943D+00
 Gap=    -0.161 Goal=   None    Shift=    0.000
 RMSDP=3.13D-03 MaxDP=4.12D-01 DE=-2.31D-01 OVMax= 9.54D-01

 Cycle   3  Pass 1  IDiag  1:
 RMSU=  3.04D-03    CP:  9.69D-01  5.44D-01
 E= -1944.82871679788     Delta-E=        4.880549956557 Rises=F Damp=F
 DIIS: error= 5.81D-02 at cycle   3 NSaved=   3.
 NSaved= 3 IEnMin= 2 EnMin= -1949.70926675444     IErMin= 2 ErrMin= 9.71D-03
 ErrMax= 5.81D-02  0.00D+00 EMaxC= 1.00D-01 BMatC= 3.85D+00 BMatP= 2.01D-01
 IDIUse=2 WtCom= 0.00D+00 WtEn= 1.00D+00
 EnCoef did    16 forward-backward iterations
 Coeff-En:   0.296D+00 0.649D+00 0.553D-01
 Coeff:      0.296D+00 0.649D+00 0.553D-01
 Gap=    -0.015 Goal=   None    Shift=    0.000
 RMSDP=3.07D-03 MaxDP=6.08D-01 DE= 4.88D+00 OVMax= 5.30D-01

 Cycle   4  Pass 1  IDiag  1:
 RMSU=  1.71D-03    CP:  9.78D-01  1.29D+00  2.43D-01
 E= -1949.42072477889     Delta-E=       -4.592007981008 Rises=F Damp=F
 DIIS: error= 4.82D-02 at cycle   4 NSaved=   4.
 NSaved= 4 IEnMin= 2 EnMin= -1949.70926675444     IErMin= 2 ErrMin= 9.71D-03
 ErrMax= 4.82D-02  0.00D+00 EMaxC= 1.00D-01 BMatC= 1.59D+00 BMatP= 2.01D-01
 IDIUse=2 WtCom= 0.00D+00 WtEn= 1.00D+00
 EnCoef did   100 forward-backward iterations
 Coeff-En:   0.504D+00 0.876D-02 0.636D-04 0.487D+00
 Coeff:      0.504D+00 0.876D-02 0.636D-04 0.487D+00
 Gap=     0.127 Goal=   None    Shift=    0.000
 RMSDP=2.05D-03 MaxDP=4.23D-01 DE=-4.59D+00 OVMax= 4.67D-01

 Cycle   5  Pass 1  IDiag  1:
 RMSU=  1.35D-03    CP:  9.84D-01  5.53D-01  2.07D-01  3.44D-01
 E= -1950.00571724619     Delta-E=       -0.584992467306 Rises=F Damp=F
 DIIS: error= 4.33D-02 at cycle   5 NSaved=   5.
 NSaved= 5 IEnMin= 5 EnMin= -1950.00571724619     IErMin= 2 ErrMin= 9.71D-03
 ErrMax= 4.33D-02  0.00D+00 EMaxC= 1.00D-01 BMatC= 9.85D-01 BMatP= 2.01D-01
 IDIUse=2 WtCom= 0.00D+00 WtEn= 1.00D+00
 EnCoef did    11 forward-backward iterations
 Coeff-En:   0.159D+00 0.000D+00 0.000D+00 0.406D+00 0.434D+00
 Coeff:      0.159D+00 0.000D+00 0.000D+00 0.406D+00 0.434D+00
 Gap=     0.054 Goal=   None    Shift=    0.000
 RMSDP=1.63D-03 MaxDP=2.87D-01 DE=-5.85D-01 OVMax= 3.87D-01

 Cycle   6  Pass 1  IDiag  1:
 RMSU=  6.34D-04    CP:  9.88D-01  5.48D-01  1.28D-01  5.51D-01 -6.39D-02
 E= -1950.59935516258     Delta-E=       -0.593637916391 Rises=F Damp=F
 DIIS: error= 1.42D-02 at cycle   6 NSaved=   6.
 NSaved= 6 IEnMin= 6 EnMin= -1950.59935516258     IErMin= 2 ErrMin= 9.71D-03
 ErrMax= 1.42D-02  0.00D+00 EMaxC= 1.00D-01 BMatC= 2.99D-01 BMatP= 2.01D-01
 IDIUse=2 WtCom= 0.00D+00 WtEn= 1.00D+00
 EnCoef did     4 forward-backward iterations
 Coeff-En:   0.000D+00 0.000D+00 0.000D+00 0.194D-02 0.312D+00 0.686D+00
 Coeff:      0.000D+00 0.000D+00 0.000D+00 0.194D-02 0.312D+00 0.686D+00
 Gap=     0.078 Goal=   None    Shift=    0.000
 RMSDP=1.17D-03 MaxDP=1.33D-01 DE=-5.94D-01 OVMax= 2.27D-01

 Cycle   7  Pass 1  IDiag  1:
 RMSU=  4.80D-04    CP:  9.85D-01  8.16D-01  1.63D-01  6.89D-01  3.69D-01
                    CP: -1.93D-01
 E= -1950.62127266001     Delta-E=       -0.021917497425 Rises=F Damp=F
 DIIS: error= 1.71D-02 at cycle   7 NSaved=   7.
 NSaved= 7 IEnMin= 7 EnMin= -1950.62127266001     IErMin= 2 ErrMin= 9.71D-03
 ErrMax= 1.71D-02  0.00D+00 EMaxC= 1.00D-01 BMatC= 3.07D-01 BMatP= 2.01D-01
 IDIUse=2 WtCom= 0.00D+00 WtEn= 1.00D+00
 EnCoef did     5 forward-backward iterations
 Coeff-En:   0.000D+00 0.000D+00 0.000D+00 0.000D+00 0.213D+00 0.479D+00
 Coeff-En:   0.308D+00
 Coeff:      0.000D+00 0.000D+00 0.000D+00 0.000D+00 0.213D+00 0.479D+00
 Coeff:      0.308D+00
 Gap=     0.123 Goal=   None    Shift=    0.000
 RMSDP=8.85D-04 MaxDP=1.56D-01 DE=-2.19D-02 OVMax= 2.29D-01

 Cycle   8  Pass 1  IDiag  1:
 RMSU=  2.58D-04    CP:  9.86D-01  5.22D-01  1.84D-01  4.62D-01  4.06D-01
                    CP:  3.60D-01 -5.88D-02
 E= -1950.77424928999     Delta-E=       -0.152976629978 Rises=F Damp=F
 DIIS: error= 1.60D-02 at cycle   8 NSaved=   8.
 NSaved= 8 IEnMin= 8 EnMin= -1950.77424928999     IErMin= 2 ErrMin= 9.71D-03
 ErrMax= 1.60D-02  0.00D+00 EMaxC= 1.00D-01 BMatC= 1.14D-01 BMatP= 2.01D-01
 IDIUse=3 WtCom= 8.40D-01 WtEn= 1.60D-01
 EnCoef did     2 forward-backward iterations
 Coeff-Com: -0.865D-01 0.717D-01 0.359D-02-0.729D-01 0.897D-01 0.376D+00
 Coeff-Com:  0.265D+00 0.353D+00
 Coeff-En:   0.000D+00 0.000D+00 0.000D+00 0.000D+00 0.000D+00 0.189D+00
 Coeff-En:   0.245D+00 0.566D+00
 Coeff:     -0.727D-01 0.603D-01 0.302D-02-0.613D-01 0.754D-01 0.346D+00
 Coeff:      0.261D+00 0.387D+00
 Gap=     0.074 Goal=   None    Shift=    0.000
 RMSDP=4.29D-04 MaxDP=9.97D-02 DE=-1.53D-01 OVMax= 1.24D-01

 Cycle   9  Pass 1  IDiag  1:
 RMSU=  1.26D-04    CP:  9.86D-01  6.25D-01  1.60D-01  5.76D-01  2.92D-01
                    CP:  3.95D-01  3.54D-01  2.34D-01
 E= -1950.86101849515     Delta-E=       -0.086769205160 Rises=F Damp=F
 DIIS: error= 4.43D-03 at cycle   9 NSaved=   9.
 NSaved= 9 IEnMin= 9 EnMin= -1950.86101849515     IErMin= 9 ErrMin= 4.43D-03
 ErrMax= 4.43D-03  0.00D+00 EMaxC= 1.00D-01 BMatC= 1.20D-02 BMatP= 1.14D-01
 IDIUse=3 WtCom= 9.56D-01 WtEn= 4.43D-02
 Coeff-Com: -0.466D-01 0.431D-01-0.599D-03-0.437D-01 0.805D-02 0.149D+00
 Coeff-Com:  0.141D+00 0.344D+00 0.405D+00
 Coeff-En:   0.000D+00 0.000D+00 0.000D+00 0.000D+00 0.000D+00 0.000D+00
 Coeff-En:   0.000D+00 0.182D+00 0.818D+00
 Coeff:     -0.446D-01 0.412D-01-0.572D-03-0.417D-01 0.769D-02 0.142D+00
 Coeff:      0.135D+00 0.337D+00 0.424D+00
 Gap=     0.070 Goal=   None    Shift=    0.000
 RMSDP=1.31D-04 MaxDP=2.58D-02 DE=-8.68D-02 OVMax= 3.99D-02

 Cycle  10  Pass 1  IDiag  1:
 RMSU=  4.24D-05    CP:  9.86D-01  5.96D-01  1.63D-01  5.49D-01  3.08D-01
                    CP:  4.23D-01  2.65D-01  4.54D-01  4.08D-01
 E= -1950.87024747749     Delta-E=       -0.009228982339 Rises=F Damp=F
 DIIS: error= 4.07D-04 at cycle  10 NSaved=  10.
 NSaved=10 IEnMin=10 EnMin= -1950.87024747749     IErMin=10 ErrMin= 4.07D-04
 ErrMax= 4.07D-04  0.00D+00 EMaxC= 1.00D-01 BMatC= 4.22D-04 BMatP= 1.20D-02
 IDIUse=3 WtCom= 9.96D-01 WtEn= 4.07D-03
 Coeff-Com: -0.179D-01 0.194D-01-0.198D-02-0.162D-01 0.101D-02 0.412D-01
 Coeff-Com:  0.471D-01 0.152D+00 0.266D+00 0.509D+00
 Coeff-En:   0.000D+00 0.000D+00 0.000D+00 0.000D+00 0.000D+00 0.000D+00
 Coeff-En:   0.000D+00 0.000D+00 0.234D-01 0.977D+00
 Coeff:     -0.178D-01 0.194D-01-0.197D-02-0.161D-01 0.100D-02 0.410D-01
 Coeff:      0.469D-01 0.151D+00 0.265D+00 0.511D+00
 Gap=     0.070 Goal=   None    Shift=    0.000
 RMSDP=3.90D-05 MaxDP=3.33D-03 DE=-9.23D-03 OVMax= 1.28D-02

 Cycle  11  Pass 1  IDiag  1:
 RMSU=  2.51D-05    CP:  9.86D-01  5.98D-01  1.61D-01  5.49D-01  3.15D-01
                    CP:  4.05D-01  2.81D-01  4.35D-01  4.97D-01  5.25D-01
 E= -1950.87061383711     Delta-E=       -0.000366359622 Rises=F Damp=F
 DIIS: error= 2.55D-04 at cycle  11 NSaved=  11.
 NSaved=11 IEnMin=11 EnMin= -1950.87061383711     IErMin=11 ErrMin= 2.55D-04
 ErrMax= 2.55D-04  0.00D+00 EMaxC= 1.00D-01 BMatC= 1.12D-04 BMatP= 4.22D-04
 IDIUse=3 WtCom= 9.97D-01 WtEn= 2.55D-03
 Coeff-Com: -0.707D-02 0.108D-01-0.966D-03-0.355D-02 0.180D-02 0.285D-02
 Coeff-Com:  0.520D-02 0.291D-01 0.910D-01 0.343D+00 0.528D+00
 Coeff-En:   0.000D+00 0.000D+00 0.000D+00 0.000D+00 0.000D+00 0.000D+00
 Coeff-En:   0.000D+00 0.000D+00 0.000D+00 0.130D+00 0.870D+00
 Coeff:     -0.706D-02 0.108D-01-0.964D-03-0.354D-02 0.180D-02 0.284D-02
 Coeff:      0.519D-02 0.290D-01 0.907D-01 0.343D+00 0.528D+00
 Gap=     0.070 Goal=   None    Shift=    0.000
 RMSDP=1.48D-05 MaxDP=1.77D-03 DE=-3.66D-04 OVMax= 3.51D-03

 Cycle  12  Pass 1  IDiag  1:
 RMSU=  9.89D-06    CP:  9.86D-01  5.99D-01  1.61D-01  5.50D-01  3.14D-01
                    CP:  4.06D-01  2.82D-01  4.39D-01  4.64D-01  6.57D-01
                    CP:  6.69D-01
 E= -1950.87069698530     Delta-E=       -0.000083148190 Rises=F Damp=F
 DIIS: error= 1.84D-04 at cycle  12 NSaved=  12.
 NSaved=12 IEnMin=12 EnMin= -1950.87069698530     IErMin=12 ErrMin= 1.84D-04
 ErrMax= 1.84D-04  0.00D+00 EMaxC= 1.00D-01 BMatC= 2.72D-05 BMatP= 1.12D-04
 IDIUse=3 WtCom= 9.98D-01 WtEn= 1.84D-03
 Coeff-Com: -0.312D-02 0.578D-02-0.265D-03-0.348D-03 0.179D-02-0.298D-02
 Coeff-Com: -0.236D-02-0.685D-02 0.193D-01 0.136D+00 0.366D+00 0.487D+00
 Coeff-En:   0.000D+00 0.000D+00 0.000D+00 0.000D+00 0.000D+00 0.000D+00
 Coeff-En:   0.000D+00 0.000D+00 0.000D+00 0.000D+00 0.494D-01 0.951D+00
 Coeff:     -0.312D-02 0.577D-02-0.264D-03-0.348D-03 0.179D-02-0.297D-02
 Coeff:     -0.235D-02-0.684D-02 0.192D-01 0.136D+00 0.365D+00 0.488D+00
 Gap=     0.070 Goal=   None    Shift=    0.000
 RMSDP=6.77D-06 MaxDP=7.88D-04 DE=-8.31D-05 OVMax= 1.56D-03

 Cycle  13  Pass 1  IDiag  1:
 RMSU=  4.85D-06    CP:  9.86D-01  6.00D-01  1.60D-01  5.50D-01  3.14D-01
                    CP:  4.07D-01  2.83D-01  4.31D-01  4.73D-01  6.58D-01
                    CP:  7.43D-01  7.22D-01
 E= -1950.87071874817     Delta-E=       -0.000021762871 Rises=F Damp=F
 DIIS: error= 4.48D-05 at cycle  13 NSaved=  13.
 NSaved=13 IEnMin=13 EnMin= -1950.87071874817     IErMin=13 ErrMin= 4.48D-05
 ErrMax= 4.48D-05  0.00D+00 EMaxC= 1.00D-01 BMatC= 4.31D-06 BMatP= 2.72D-05
 IDIUse=1 WtCom= 1.00D+00 WtEn= 0.00D+00
 Coeff-Com: -0.591D-03 0.137D-02-0.638D-04 0.327D-03 0.126D-02-0.143D-02
 Coeff-Com: -0.119D-02-0.113D-01-0.688D-02-0.402D-02 0.112D+00 0.349D+00
 Coeff-Com:  0.562D+00
 Coeff:     -0.591D-03 0.137D-02-0.638D-04 0.327D-03 0.126D-02-0.143D-02
 Coeff:     -0.119D-02-0.113D-01-0.688D-02-0.402D-02 0.112D+00 0.349D+00
 Coeff:      0.562D+00
 Gap=     0.070 Goal=   None    Shift=    0.000
 RMSDP=3.99D-06 MaxDP=3.16D-04 DE=-2.18D-05 OVMax= 1.25D-03

 Cycle  14  Pass 1  IDiag  1:
 RMSU=  2.06D-06    CP:  9.86D-01  6.01D-01  1.60D-01  5.51D-01  3.15D-01
                    CP:  4.05D-01  2.86D-01  4.27D-01  4.73D-01  6.60D-01
                    CP:  7.90D-01  7.83D-01  6.88D-01
 E= -1950.87072331853     Delta-E=       -0.000004570355 Rises=F Damp=F
 DIIS: error= 1.98D-05 at cycle  14 NSaved=  14.
 NSaved=14 IEnMin=14 EnMin= -1950.87072331853     IErMin=14 ErrMin= 1.98D-05
 ErrMax= 1.98D-05  0.00D+00 EMaxC= 1.00D-01 BMatC= 8.91D-07 BMatP= 4.31D-06
 IDIUse=1 WtCom= 1.00D+00 WtEn= 0.00D+00
 Coeff-Com: -0.738D-04 0.276D-03-0.167D-04 0.202D-03 0.555D-03-0.313D-03
 Coeff-Com: -0.115D-03-0.622D-02-0.705D-02-0.252D-01 0.184D-01 0.168D+00
 Coeff-Com:  0.415D+00 0.437D+00
 Coeff:     -0.738D-04 0.276D-03-0.167D-04 0.202D-03 0.555D-03-0.313D-03
 Coeff:     -0.115D-03-0.622D-02-0.705D-02-0.252D-01 0.184D-01 0.168D+00
 Coeff:      0.415D+00 0.437D+00
 Gap=     0.070 Goal=   None    Shift=    0.000
 RMSDP=1.26D-06 MaxDP=1.18D-04 DE=-4.57D-06 OVMax= 1.64D-04

 Cycle  15  Pass 1  IDiag  1:
 RMSU=  5.98D-07    CP:  9.86D-01  6.01D-01  1.60D-01  5.51D-01  3.15D-01
                    CP:  4.05D-01  2.86D-01  4.27D-01  4.72D-01  6.57D-01
                    CP:  7.93D-01  8.24D-01  6.98D-01  5.20D-01
 E= -1950.87072405296     Delta-E=       -0.000000734431 Rises=F Damp=F
 DIIS: error= 7.24D-06 at cycle  15 NSaved=  15.
 NSaved=15 IEnMin=15 EnMin= -1950.87072405296     IErMin=15 ErrMin= 7.24D-06
 ErrMax= 7.24D-06  0.00D+00 EMaxC= 1.00D-01 BMatC= 8.29D-08 BMatP= 8.91D-07
 IDIUse=1 WtCom= 1.00D+00 WtEn= 0.00D+00
 Coeff-Com:  0.951D-05 0.315D-04-0.207D-05 0.966D-04 0.929D-04-0.119D-04
 Coeff-Com:  0.111D-03-0.201D-02-0.288D-02-0.133D-01-0.434D-02 0.511D-01
 Coeff-Com:  0.173D+00 0.254D+00 0.544D+00
 Coeff:      0.951D-05 0.315D-04-0.207D-05 0.966D-04 0.929D-04-0.119D-04
 Coeff:      0.111D-03-0.201D-02-0.288D-02-0.133D-01-0.434D-02 0.511D-01
 Coeff:      0.173D+00 0.254D+00 0.544D+00
 Gap=     0.070 Goal=   None    Shift=    0.000
 RMSDP=4.85D-07 MaxDP=3.89D-05 DE=-7.34D-07 OVMax= 6.02D-05

 Cycle  16  Pass 1  IDiag  1:
 RMSU=  3.25D-07    CP:  9.86D-01  6.01D-01  1.60D-01  5.51D-01  3.15D-01
                    CP:  4.05D-01  2.86D-01  4.27D-01  4.72D-01  6.56D-01
                    CP:  7.93D-01  8.20D-01  7.34D-01  5.30D-01  5.52D-01
 E= -1950.87072407864     Delta-E=       -0.000000025684 Rises=F Damp=F
 DIIS: error= 3.89D-06 at cycle  16 NSaved=  16.
 NSaved=16 IEnMin=16 EnMin= -1950.87072407864     IErMin=16 ErrMin= 3.89D-06
 ErrMax= 3.89D-06  0.00D+00 EMaxC= 1.00D-01 BMatC= 2.72D-08 BMatP= 8.29D-08
 IDIUse=1 WtCom= 1.00D+00 WtEn= 0.00D+00
 Coeff-Com:  0.144D-04-0.123D-04-0.111D-05 0.505D-04-0.266D-04 0.415D-04
 Coeff-Com:  0.103D-03-0.615D-03-0.114D-02-0.656D-02-0.688D-02 0.148D-01
 Coeff-Com:  0.743D-01 0.131D+00 0.413D+00 0.382D+00
 Coeff:      0.144D-04-0.123D-04-0.111D-05 0.505D-04-0.266D-04 0.415D-04
 Coeff:      0.103D-03-0.615D-03-0.114D-02-0.656D-02-0.688D-02 0.148D-01
 Coeff:      0.743D-01 0.131D+00 0.413D+00 0.382D+00
 Gap=     0.070 Goal=   None    Shift=    0.000
 RMSDP=2.31D-07 MaxDP=1.49D-05 DE=-2.57D-08 OVMax= 3.51D-05

 Cycle  17  Pass 1  IDiag  1:
 RMSU=  9.32D-08    CP:  9.86D-01  6.01D-01  1.60D-01  5.51D-01  3.15D-01
                    CP:  4.05D-01  2.86D-01  4.27D-01  4.72D-01  6.56D-01
                    CP:  7.92D-01  8.24D-01  7.33D-01  5.37D-01  6.27D-01
                    CP:  4.08D-01
 E= -1950.87072408970     Delta-E=       -0.000000011064 Rises=F Damp=F
 DIIS: error= 2.24D-06 at cycle  17 NSaved=  17.
 NSaved=17 IEnMin=17 EnMin= -1950.87072408970     IErMin=17 ErrMin= 2.24D-06
 ErrMax= 2.24D-06  0.00D+00 EMaxC= 1.00D-01 BMatC= 3.19D-09 BMatP= 2.72D-08
 IDIUse=1 WtCom= 1.00D+00 WtEn= 0.00D+00
 Coeff-Com:  0.382D-05-0.317D-05 0.418D-06 0.285D-04-0.285D-04 0.386D-04
 Coeff-Com:  0.565D-04-0.255D-03-0.505D-03-0.325D-02-0.448D-02 0.579D-02
 Coeff-Com:  0.350D-01 0.663D-01 0.229D+00 0.247D+00 0.425D+00
 Coeff:      0.382D-05-0.317D-05 0.418D-06 0.285D-04-0.285D-04 0.386D-04
 Coeff:      0.565D-04-0.255D-03-0.505D-03-0.325D-02-0.448D-02 0.579D-02
 Coeff:      0.350D-01 0.663D-01 0.229D+00 0.247D+00 0.425D+00
 Gap=     0.070 Goal=   None    Shift=    0.000
 RMSDP=6.44D-08 MaxDP=5.11D-06 DE=-1.11D-08 OVMax= 9.97D-06

 Cycle  18  Pass 1  IDiag  1:
 RMSU=  3.67D-08    CP:  9.86D-01  6.01D-01  1.60D-01  5.51D-01  3.15D-01
                    CP:  4.05D-01  2.86D-01  4.27D-01  4.72D-01  6.56D-01
                    CP:  7.92D-01  8.24D-01  7.33D-01  5.45D-01  6.26D-01
                    CP:  4.43D-01  5.20D-01
 E= -1950.87072409196     Delta-E=       -0.000000002255 Rises=F Damp=F
 DIIS: error= 1.08D-06 at cycle  18 NSaved=  18.
 NSaved=18 IEnMin=18 EnMin= -1950.87072409196     IErMin=18 ErrMin= 1.08D-06
 ErrMax= 1.08D-06  0.00D+00 EMaxC= 1.00D-01 BMatC= 7.00D-10 BMatP= 3.19D-09
 IDIUse=1 WtCom= 1.00D+00 WtEn= 0.00D+00
 Coeff-Com: -0.215D-05 0.278D-05 0.552D-06 0.121D-04-0.176D-04 0.208D-04
 Coeff-Com:  0.168D-04-0.738D-04-0.133D-03-0.103D-02-0.195D-02 0.133D-02
 Coeff-Com:  0.103D-01 0.217D-01 0.812D-01 0.974D-01 0.284D+00 0.507D+00
 Coeff:     -0.215D-05 0.278D-05 0.552D-06 0.121D-04-0.176D-04 0.208D-04
 Coeff:      0.168D-04-0.738D-04-0.133D-03-0.103D-02-0.195D-02 0.133D-02
 Coeff:      0.103D-01 0.217D-01 0.812D-01 0.974D-01 0.284D+00 0.507D+00
 Gap=     0.070 Goal=   None    Shift=    0.000
 RMSDP=3.02D-08 MaxDP=3.61D-06 DE=-2.25D-09 OVMax= 7.27D-06

 Cycle  19  Pass 1  IDiag  1:
 RMSU=  1.47D-08    CP:  9.86D-01  6.01D-01  1.60D-01  5.51D-01  3.15D-01
                    CP:  4.05D-01  2.86D-01  4.27D-01  4.72D-01  6.56D-01
                    CP:  7.92D-01  8.24D-01  7.33D-01  5.44D-01  6.35D-01
                    CP:  4.32D-01  5.77D-01  4.88D-01
 E= -1950.87072409250     Delta-E=       -0.000000000539 Rises=F Damp=F
 DIIS: error= 4.07D-07 at cycle  19 NSaved=  19.
 NSaved=19 IEnMin=19 EnMin= -1950.87072409250     IErMin=19 ErrMin= 4.07D-07
 ErrMax= 4.07D-07  0.00D+00 EMaxC= 1.00D-01 BMatC= 9.80D-11 BMatP= 7.00D-10
 IDIUse=1 WtCom= 1.00D+00 WtEn= 0.00D+00
 Coeff-Com: -0.851D-06 0.193D-06 0.295D-06 0.562D-05-0.895D-05 0.103D-04
 Coeff-Com:  0.393D-05-0.260D-04-0.348D-04-0.318D-03-0.863D-03 0.800D-04
 Coeff-Com:  0.246D-02 0.615D-02 0.254D-01 0.336D-01 0.141D+00 0.368D+00
 Coeff-Com:  0.425D+00
 Coeff:     -0.851D-06 0.193D-06 0.295D-06 0.562D-05-0.895D-05 0.103D-04
 Coeff:      0.393D-05-0.260D-04-0.348D-04-0.318D-03-0.863D-03 0.800D-04
 Coeff:      0.246D-02 0.615D-02 0.254D-01 0.336D-01 0.141D+00 0.368D+00
 Coeff:      0.425D+00
 Gap=     0.070 Goal=   None    Shift=    0.000
 RMSDP=1.18D-08 MaxDP=1.16D-06 DE=-5.39D-10 OVMax= 1.78D-06

 Cycle  20  Pass 1  IDiag  1:
 RMSU=  6.43D-09    CP:  9.86D-01  6.01D-01  1.60D-01  5.51D-01  3.15D-01
                    CP:  4.05D-01  2.86D-01  4.27D-01  4.72D-01  6.57D-01
                    CP:  7.92D-01  8.24D-01  7.33D-01  5.45D-01  6.34D-01
                    CP:  4.39D-01  5.62D-01  5.82D-01  5.32D-01
 E= -1950.87072409245     Delta-E=        0.000000000045 Rises=F Damp=F
 DIIS: error= 1.40D-07 at cycle  20 NSaved=  20.
 NSaved=20 IEnMin=19 EnMin= -1950.87072409250     IErMin=20 ErrMin= 1.40D-07
 ErrMax= 1.40D-07  0.00D+00 EMaxC= 1.00D-01 BMatC= 1.58D-11 BMatP= 9.80D-11
 IDIUse=1 WtCom= 1.00D+00 WtEn= 0.00D+00
 Coeff-Com: -0.928D-07-0.466D-06 0.221D-07 0.162D-05-0.263D-05 0.275D-05
 Coeff-Com: -0.783D-06-0.590D-05 0.413D-05 0.258D-05-0.176D-03-0.227D-03
 Coeff-Com: -0.473D-03-0.345D-03 0.217D-03 0.209D-02 0.356D-01 0.149D+00
 Coeff-Com:  0.308D+00 0.506D+00
 Coeff:     -0.928D-07-0.466D-06 0.221D-07 0.162D-05-0.263D-05 0.275D-05
 Coeff:     -0.783D-06-0.590D-05 0.413D-05 0.258D-05-0.176D-03-0.227D-03
 Coeff:     -0.473D-03-0.345D-03 0.217D-03 0.209D-02 0.356D-01 0.149D+00
 Coeff:      0.308D+00 0.506D+00
 Gap=     0.070 Goal=   None    Shift=    0.000
 RMSDP=4.92D-09 MaxDP=5.54D-07 DE= 4.55D-11 OVMax= 5.78D-07

 Error on total polarization charges =  0.00918
 SCF Done:  E(RB-P86) =  -1950.87072409     A.U. after   20 cycles
            NFock= 20  Conv=0.49D-08     -V/T= 2.0876
 KE= 1.793694489000D+03 PE=-1.546804536435D+04 EE= 6.256475839325D+03
 Leave Link  502 at Sat Apr 11 14:27:44 2020, MaxMem=  1879048192 cpu:      6060.1
 (Enter /home/programs/G09_D/g09/l601.exe)
 Copying SCF densities to generalized density rwf, IOpCl= 0 IROHF=0.

 **********************************************************************

            Population analysis using the SCF density.

 **********************************************************************

 Orbital symmetries:
       Occupied  (A) (A) (A) (A) (A) (A) (A) (A) (A) (A) (A) (A)
                 (A) (A) (A) (A) (A) (A) (A) (A) (A) (A) (A) (A)
                 (A) (A) (A) (A) (A) (A) (A) (A) (A) (A) (A) (A)
                 (A) (A) (A) (A) (A) (A) (A) (A) (A) (A) (A) (A)
                 (A) (A) (A) (A) (A) (A) (A) (A) (A) (A) (A) (A)
                 (A) (A) (A) (A) (A) (A) (A) (A) (A) (A) (A) (A)
                 (A) (A) (A) (A) (A) (A) (A) (A) (A) (A) (A) (A)
                 (A) (A) (A) (A) (A) (A) (A) (A) (A) (A) (A) (A)
                 (A) (A) (A) (A) (A) (A) (A) (A) (A) (A) (A) (A)
                 (A) (A) (A) (A) (A) (A) (A) (A) (A) (A) (A) (A)
                 (A) (A) (A) (A) (A) (A) (A) (A) (A) (A) (A) (A)
                 (A) (A) (A) (A) (A) (A) (A) (A) (A) (A) (A) (A)
                 (A) (A) (A) (A) (A) (A) (A) (A) (A) (A) (A) (A)
                 (A) (A) (A)
       Virtual   (A) (A) (A) (A) (A) (A) (A) (A) (A) (A) (A) (A)
                 (A) (A) (A) (A) (A) (A) (A) (A) (A) (A) (A) (A)
                 (A) (A) (A) (A) (A) (A) (A) (A) (A) (A) (A) (A)
                 (A) (A) (A) (A) (A) (A) (A) (A) (A) (A) (A) (A)
                 (A) (A) (A) (A) (A) (A) (A) (A) (A) (A) (A) (A)
                 (A) (A) (A) (A) (A) (A) (A) (A) (A) (A) (A) (A)
                 (A) (A) (A) (A) (A) (A) (A) (A) (A) (A) (A) (A)
                 (A) (A) (A) (A) (A) (A) (A) (A) (A) (A) (A) (A)
                 (A) (A) (A) (A) (A) (A) (A) (A) (A) (A) (A) (A)
                 (A) (A) (A) (A) (A) (A) (A) (A) (A) (A) (A) (A)
                 (A) (A) (A) (A) (A) (A) (A) (A) (A) (A) (A) (A)
                 (A) (A) (A) (A) (A) (A) (A) (A) (A) (A) (A) (A)
                 (A) (A) (A) (A) (A) (A) (A) (A) (A) (A) (A) (A)
                 (A) (A) (A) (A) (A) (A) (A) (A) (A) (A) (A) (A)
                 (A) (A) (A) (A) (A) (A) (A) (A) (A) (A) (A) (A)
                 (A) (A) (A) (A) (A) (A) (A) (A) (A) (A) (A) (A)
                 (A) (A) (A) (A) (A) (A) (A) (A) (A) (A) (A) (A)
                 (A) (A) (A) (A) (A) (A) (A) (A) (A) (A) (A) (A)
                 (A) (A) (A) (A) (A) (A) (A) (A) (A) (A) (A) (A)
                 (A) (A) (A) (A) (A) (A) (A) (A) (A) (A) (A) (A)
                 (A) (A) (A) (A) (A) (A) (A) (A) (A) (A) (A) (A)
                 (A) (A) (A) (A) (A) (A) (A) (A) (A) (A) (A) (A)
                 (A) (A) (A) (A) (A) (A) (A) (A) (A) (A) (A) (A)
                 (A) (A) (A) (A) (A) (A) (A) (A) (A) (A) (A) (A)
                 (A) (A) (A) (A) (A) (A) (A) (A) (A) (A) (A) (A)
                 (A) (A) (A) (A) (A) (A) (A) (A) (A) (A) (A) (A)
                 (A) (A) (A) (A) (A) (A) (A) (A) (A) (A) (A) (A)
                 (A) (A) (A) (A) (A) (A) (A) (A) (A) (A) (A) (A)
                 (A) (A) (A) (A) (A) (A) (A) (A) (A) (A) (A) (A)
                 (A) (A) (A) (A) (A) (A) (A) (A) (A) (A) (A) (A)
                 (A) (A) (A) (A) (A) (A) (A) (A) (A) (A) (A) (A)
                 (A) (A) (A) (A) (A) (A) (A) (A) (A) (A) (A) (A)
                 (A) (A) (A) (A) (A) (A) (A) (A) (A) (A) (A) (A)
                 (A) (A) (A) (A) (A) (A) (A) (A) (A) (A) (A) (A)
                 (A) (A) (A) (A) (A) (A) (A) (A) (A) (A) (A) (A)
                 (A) (A) (A) (A) (A) (A) (A) (A) (A) (A) (A) (A)
                 (A) (A) (A) (A) (A) (A) (A) (A) (A) (A) (A) (A)
                 (A) (A) (A) (A) (A) (A) (A) (A) (A) (A) (A) (A)
                 (A) (A) (A) (A) (A) (A) (A) (A) (A) (A) (A) (A)
                 (A) (A) (A) (A) (A) (A) (A) (A) (A) (A) (A) (A)
                 (A) (A) (A) (A) (A) (A) (A) (A) (A) (A) (A) (A)
                 (A) (A) (A) (A) (A) (A) (A) (A) (A) (A) (A) (A)
                 (A) (A) (A) (A) (A) (A) (A) (A) (A) (A) (A) (A)
                 (A) (A) (A) (A) (A) (A) (A) (A) (A) (A) (A) (A)
                 (A) (A) (A) (A) (A) (A) (A) (A) (A) (A) (A) (A)
                 (A) (A) (A) (A) (A) (A) (A) (A) (A) (A) (A) (A)
                 (A) (A) (A) (A) (A) (A) (A) (A) (A) (A) (A) (A)
                 (A) (A) (A) (A) (A) (A) (A) (A) (A) (A) (A) (A)
                 (A) (A) (A) (A) (A) (A) (A) (A) (A) (A) (A) (A)
                 (A) (A) (A) (A) (A) (A) (A) (A) (A) (A) (A) (A)
                 (A) (A) (A) (A) (A) (A) (A) (A) (A) (A) (A) (A)
                 (A) (A) (A) (A) (A) (A) (A) (A) (A) (A) (A) (A)
                 (A) (A) (A) (A) (A) (A) (A) (A) (A) (A) (A) (A)
                 (A) (A) (A)
 The electronic state is 1-A.
 Alpha  occ. eigenvalues --  -18.83432 -18.82227  -9.99014  -9.98769  -9.93588
 Alpha  occ. eigenvalues --   -9.93236  -9.93062  -9.93058  -9.92766  -9.92680
 Alpha  occ. eigenvalues --   -9.92613  -9.92584  -9.92540  -9.92452  -9.92434
 Alpha  occ. eigenvalues --   -9.92388  -9.92358  -9.92350  -9.92322  -9.92320
 Alpha  occ. eigenvalues --   -9.92318  -9.92266  -9.92218  -9.92217  -9.92178
 Alpha  occ. eigenvalues --   -9.92161  -9.92159  -9.92116  -9.92062  -9.92055
 Alpha  occ. eigenvalues --   -9.92007  -9.91885  -9.91829  -9.91801  -9.91611
 Alpha  occ. eigenvalues --   -9.91570  -9.91500  -9.91337  -9.90637  -9.90355
 Alpha  occ. eigenvalues --   -4.81812  -3.05355  -3.05110  -3.04685  -2.86087
 Alpha  occ. eigenvalues --   -1.75402  -1.74430  -1.72267  -0.99257  -0.98095
 Alpha  occ. eigenvalues --   -0.78648  -0.78428  -0.77976  -0.77729  -0.77066
 Alpha  occ. eigenvalues --   -0.76902  -0.70646  -0.70483  -0.68186  -0.68015
 Alpha  occ. eigenvalues --   -0.67928  -0.67795  -0.67749  -0.67487  -0.67038
 Alpha  occ. eigenvalues --   -0.66963  -0.66675  -0.66414  -0.59854  -0.59569
 Alpha  occ. eigenvalues --   -0.55238  -0.55045  -0.55011  -0.54813  -0.54317
 Alpha  occ. eigenvalues --   -0.54192  -0.53811  -0.53713  -0.53162  -0.52876
 Alpha  occ. eigenvalues --   -0.50831  -0.50442  -0.48791  -0.47373  -0.46873
 Alpha  occ. eigenvalues --   -0.46660  -0.46176  -0.45975  -0.44637  -0.44090
 Alpha  occ. eigenvalues --   -0.41187  -0.41163  -0.41037  -0.40937  -0.40822
 Alpha  occ. eigenvalues --   -0.40642  -0.40315  -0.40290  -0.40045  -0.39874
 Alpha  occ. eigenvalues --   -0.39773  -0.39601  -0.39121  -0.39029  -0.38764
 Alpha  occ. eigenvalues --   -0.38555  -0.38172  -0.38006  -0.37894  -0.37781
 Alpha  occ. eigenvalues --   -0.37660  -0.37598  -0.37455  -0.37194  -0.36951
 Alpha  occ. eigenvalues --   -0.36813  -0.36366  -0.36164  -0.35956  -0.35779
 Alpha  occ. eigenvalues --   -0.35365  -0.34712  -0.34399  -0.33451  -0.33388
 Alpha  occ. eigenvalues --   -0.33172  -0.32908  -0.32506  -0.32460  -0.32069
 Alpha  occ. eigenvalues --   -0.32028  -0.30847  -0.30633  -0.30577  -0.30446
 Alpha  occ. eigenvalues --   -0.30073  -0.29423  -0.29137  -0.28595  -0.28469
 Alpha  occ. eigenvalues --   -0.26791  -0.26217  -0.24100  -0.23823  -0.23611
 Alpha  occ. eigenvalues --   -0.23342  -0.23314  -0.23249  -0.23011  -0.22820
 Alpha  occ. eigenvalues --   -0.22561  -0.22423  -0.22219  -0.21961  -0.21598
 Alpha  occ. eigenvalues --   -0.21053  -0.18863  -0.18343  -0.17098
 Alpha virt. eigenvalues --   -0.10085  -0.06505  -0.05930  -0.05634  -0.05528
 Alpha virt. eigenvalues --   -0.05347  -0.05200  -0.04702  -0.04499  -0.04215
 Alpha virt. eigenvalues --   -0.03873  -0.03478  -0.03204  -0.02698  -0.01574
 Alpha virt. eigenvalues --   -0.01213   0.00310   0.00617   0.01457   0.01689
 Alpha virt. eigenvalues --    0.02862   0.03696   0.03854   0.04167   0.04708
 Alpha virt. eigenvalues --    0.04994   0.05419   0.05725   0.06730   0.07113
 Alpha virt. eigenvalues --    0.07146   0.08016   0.08404   0.08423   0.09053
 Alpha virt. eigenvalues --    0.09416   0.09669   0.09822   0.10287   0.10424
 Alpha virt. eigenvalues --    0.10897   0.10999   0.11341   0.11438   0.11790
 Alpha virt. eigenvalues --    0.12036   0.12346   0.12603   0.12708   0.12776
 Alpha virt. eigenvalues --    0.13051   0.13412   0.13830   0.14084   0.14610
 Alpha virt. eigenvalues --    0.14815   0.15139   0.15269   0.15716   0.15935
 Alpha virt. eigenvalues --    0.16166   0.16229   0.16491   0.16779   0.17159
 Alpha virt. eigenvalues --    0.17421   0.18225   0.18974   0.19497   0.19845
 Alpha virt. eigenvalues --    0.20177   0.20560   0.21203   0.21974   0.22108
 Alpha virt. eigenvalues --    0.23061   0.23326   0.23634   0.24392   0.24516
 Alpha virt. eigenvalues --    0.24596   0.25087   0.25486   0.25631   0.25730
 Alpha virt. eigenvalues --    0.26129   0.26221   0.26636   0.26793   0.27189
 Alpha virt. eigenvalues --    0.27273   0.27647   0.27750   0.27880   0.28249
 Alpha virt. eigenvalues --    0.29074   0.29299   0.29538   0.30021   0.30537
 Alpha virt. eigenvalues --    0.31141   0.31728   0.32941   0.33231   0.34231
 Alpha virt. eigenvalues --    0.34419   0.34655   0.35815   0.36103   0.36872
 Alpha virt. eigenvalues --    0.38220   0.39161   0.39869   0.41068   0.41603
 Alpha virt. eigenvalues --    0.42332   0.42867   0.44639   0.45284   0.46946
 Alpha virt. eigenvalues --    0.47201   0.47906   0.48048   0.48408   0.48489
 Alpha virt. eigenvalues --    0.48843   0.48963   0.49192   0.49301   0.49440
 Alpha virt. eigenvalues --    0.49621   0.49928   0.50099   0.50423   0.50484
 Alpha virt. eigenvalues --    0.50736   0.51334   0.51535   0.51671   0.51832
 Alpha virt. eigenvalues --    0.51927   0.52120   0.52415   0.52472   0.52780
 Alpha virt. eigenvalues --    0.53547   0.53631   0.54147   0.54483   0.54647
 Alpha virt. eigenvalues --    0.54807   0.55066   0.55353   0.55384   0.55600
 Alpha virt. eigenvalues --    0.55812   0.55868   0.56094   0.56358   0.56609
 Alpha virt. eigenvalues --    0.56790   0.57048   0.57180   0.57575   0.57778
 Alpha virt. eigenvalues --    0.57877   0.58056   0.58565   0.58862   0.59307
 Alpha virt. eigenvalues --    0.59542   0.59710   0.60409   0.60758   0.60862
 Alpha virt. eigenvalues --    0.61425   0.62087   0.62439   0.62682   0.62879
 Alpha virt. eigenvalues --    0.63790   0.64052   0.64337   0.64869   0.65650
 Alpha virt. eigenvalues --    0.65888   0.67029   0.67554   0.68354   0.68409
 Alpha virt. eigenvalues --    0.69010   0.69399   0.70566   0.70966   0.71436
 Alpha virt. eigenvalues --    0.71692   0.72141   0.72855   0.73473   0.73582
 Alpha virt. eigenvalues --    0.74456   0.74946   0.75453   0.75933   0.76107
 Alpha virt. eigenvalues --    0.76476   0.76682   0.76742   0.76921   0.76970
 Alpha virt. eigenvalues --    0.77170   0.77266   0.77384   0.77588   0.77701
 Alpha virt. eigenvalues --    0.77904   0.78198   0.78966   0.79071   0.79354
 Alpha virt. eigenvalues --    0.79881   0.80034   0.80417   0.81035   0.81759
 Alpha virt. eigenvalues --    0.82107   0.82450   0.82651   0.83083   0.83570
 Alpha virt. eigenvalues --    0.83896   0.84200   0.84360   0.84753   0.84878
 Alpha virt. eigenvalues --    0.85054   0.85536   0.85834   0.86337   0.86810
 Alpha virt. eigenvalues --    0.86935   0.87466   0.88395   0.88804   0.88948
 Alpha virt. eigenvalues --    0.89378   0.89560   0.89675   0.89923   0.90637
 Alpha virt. eigenvalues --    0.90812   0.91607   0.91820   0.92359   0.92884
 Alpha virt. eigenvalues --    0.93523   0.93928   0.94207   0.95032   0.95188
 Alpha virt. eigenvalues --    0.95981   0.97054   0.97843   0.98589   0.98680
 Alpha virt. eigenvalues --    0.98995   0.99944   1.00322   1.00586   1.00907
 Alpha virt. eigenvalues --    1.01810   1.02075   1.03550   1.03744   1.04091
 Alpha virt. eigenvalues --    1.04475   1.05162   1.05341   1.05972   1.06432
 Alpha virt. eigenvalues --    1.07589   1.07888   1.07955   1.08108   1.09045
 Alpha virt. eigenvalues --    1.09367   1.09650   1.10001   1.10382   1.11393
 Alpha virt. eigenvalues --    1.11481   1.11684   1.12432   1.13338   1.13436
 Alpha virt. eigenvalues --    1.13991   1.14222   1.15758   1.17135   1.17526
 Alpha virt. eigenvalues --    1.18669   1.18890   1.19051   1.19767   1.20807
 Alpha virt. eigenvalues --    1.21129   1.21322   1.21895   1.23627   1.23652
 Alpha virt. eigenvalues --    1.24116   1.24782   1.25127   1.25694   1.26234
 Alpha virt. eigenvalues --    1.27738   1.27984   1.28837   1.29723   1.30412
 Alpha virt. eigenvalues --    1.30727   1.30933   1.31237   1.31770   1.32408
 Alpha virt. eigenvalues --    1.32825   1.33051   1.33226   1.33665   1.33868
 Alpha virt. eigenvalues --    1.34053   1.34341   1.34533   1.34748   1.35123
 Alpha virt. eigenvalues --    1.35390   1.35919   1.36241   1.36351   1.36797
 Alpha virt. eigenvalues --    1.37121   1.37332   1.37789   1.38125   1.38813
 Alpha virt. eigenvalues --    1.39607   1.40205   1.40740   1.41219   1.41686
 Alpha virt. eigenvalues --    1.43108   1.43279   1.43544   1.44886   1.45634
 Alpha virt. eigenvalues --    1.47214   1.48442   1.49342   1.50460   1.50845
 Alpha virt. eigenvalues --    1.52048   1.52610   1.53146   1.54970   1.55402
 Alpha virt. eigenvalues --    1.56918   1.57545   1.59061   1.59645   1.59883
 Alpha virt. eigenvalues --    1.62739   1.63115   1.64019   1.65132   1.66469
 Alpha virt. eigenvalues --    1.68786   1.69119   1.69645   1.69993   1.70385
 Alpha virt. eigenvalues --    1.70598   1.70993   1.71539   1.71916   1.72292
 Alpha virt. eigenvalues --    1.72497   1.72913   1.73460   1.73689   1.73858
 Alpha virt. eigenvalues --    1.74108   1.74378   1.77276   1.77737   1.78527
 Alpha virt. eigenvalues --    1.78919   1.79544   1.81410   1.82625   1.83011
 Alpha virt. eigenvalues --    1.83338   1.83558   1.83723   1.84085   1.84238
 Alpha virt. eigenvalues --    1.85310   1.85421   1.85703   1.85923   1.86275
 Alpha virt. eigenvalues --    1.86525   1.87540   1.88767   1.89206   1.89755
 Alpha virt. eigenvalues --    1.90037   1.90264   1.90473   1.90801   1.91263
 Alpha virt. eigenvalues --    1.91416   1.91570   1.91690   1.91936   1.92004
 Alpha virt. eigenvalues --    1.92204   1.92478   1.92843   1.93351   1.93468
 Alpha virt. eigenvalues --    1.93974   1.94150   1.94344   1.94571   1.95721
 Alpha virt. eigenvalues --    1.95955   1.96202   1.96898   1.97161   1.97344
 Alpha virt. eigenvalues --    1.97679   1.99265   1.99653   1.99858   1.99957
 Alpha virt. eigenvalues --    2.01622   2.02167   2.02267   2.03030   2.03257
 Alpha virt. eigenvalues --    2.03665   2.03998   2.04760   2.05023   2.05502
 Alpha virt. eigenvalues --    2.06023   2.09902   2.10654   2.11390   2.13111
 Alpha virt. eigenvalues --    2.18697   2.19046   2.19197   2.19239   2.20517
 Alpha virt. eigenvalues --    2.20901   2.20991   2.21263   2.21421   2.21661
 Alpha virt. eigenvalues --    2.21874   2.21959   2.25006   2.25135   2.26800
 Alpha virt. eigenvalues --    2.27253   2.27571   2.27820   2.27919   2.28047
 Alpha virt. eigenvalues --    2.29047   2.29347   2.29486   2.29573   2.29716
 Alpha virt. eigenvalues --    2.29908   2.30113   2.30525   2.30596   2.30820
 Alpha virt. eigenvalues --    2.32628   2.32787   2.32963   2.33041   2.34484
 Alpha virt. eigenvalues --    2.35416   2.35690   2.35725   2.35881   2.37923
 Alpha virt. eigenvalues --    2.38209   2.38408   2.38824   2.39097   2.39296
 Alpha virt. eigenvalues --    2.39618   2.39826   2.41493   2.42849   2.42972
 Alpha virt. eigenvalues --    2.43189   2.43408   2.43765   2.43876   2.44180
 Alpha virt. eigenvalues --    2.44329   2.44455   2.45072   2.45175   2.45790
 Alpha virt. eigenvalues --    2.46287   2.46840   2.47234   2.47906   2.48002
 Alpha virt. eigenvalues --    2.48624   2.49318   2.49764   2.50272   2.50347
 Alpha virt. eigenvalues --    2.50788   2.50911   2.51118   2.52165   2.52900
 Alpha virt. eigenvalues --    2.53311   2.53669   2.53902   2.54060   2.54149
 Alpha virt. eigenvalues --    2.54208   2.54706   2.55064   2.55969   2.56130
 Alpha virt. eigenvalues --    2.56440   2.57590   2.58018   2.58874   2.60048
 Alpha virt. eigenvalues --    2.61283   2.61461   2.61589   2.63007   2.63351
 Alpha virt. eigenvalues --    2.63375   2.63438   2.63678   2.64345   2.66220
 Alpha virt. eigenvalues --    2.66542   2.67290   2.67912   2.68461   2.69642
 Alpha virt. eigenvalues --    2.70960   2.72069   2.72283   2.72530   2.72725
 Alpha virt. eigenvalues --    2.73670   2.79515   2.85082   2.85432   2.85647
 Alpha virt. eigenvalues --    2.86047   2.88009   2.88927   2.91565   2.91714
 Alpha virt. eigenvalues --    2.95135   2.95213   2.95536   2.95879   2.99412
 Alpha virt. eigenvalues --    3.04347   3.07322   3.08585   3.08857   3.08940
 Alpha virt. eigenvalues --    3.10023   3.10945   3.11012   3.13455   3.13582
 Alpha virt. eigenvalues --    3.13759   3.13907   3.13989   3.14522   3.14777
 Alpha virt. eigenvalues --    3.16184   3.16406   3.16468   3.16757   3.18056
 Alpha virt. eigenvalues --    3.18378   3.21273   3.21462   3.21548   3.21711
 Alpha virt. eigenvalues --    3.22856   3.23107   3.30856   3.30941   3.31594
 Alpha virt. eigenvalues --    3.32039   3.36668   3.36963   3.41240   3.41464
 Alpha virt. eigenvalues --    3.41808   3.41896   3.71025   3.71432   3.76527
 Alpha virt. eigenvalues --    3.76846   3.77243   3.77476   3.97859   5.77545
 Alpha virt. eigenvalues --    5.84342  34.62265  34.72159  35.08805  46.02983
 Alpha virt. eigenvalues --   68.58814  68.76845  68.79875  88.43471
          Condensed to atoms (all electrons):
 Mulliken charges:
               1
     1  Ru  -0.454466
     2  Zn   0.031552
     3  P    0.146581
     4  P    0.118401
     5  O   -0.308333
     6  O   -0.319685
     7  C    0.272520
     8  C    0.282099
     9  C    0.064267
    10  C   -0.039472
    11  C   -0.109761
    12  H    0.106396
    13  C   -0.115570
    14  H    0.108429
    15  C   -0.098960
    16  H    0.106939
    17  C   -0.156287
    18  H    0.105258
    19  C    0.058827
    20  C   -0.152640
    21  H    0.108152
    22  C   -0.096758
    23  H    0.108299
    24  C   -0.118204
    25  H    0.110068
    26  C   -0.105307
    27  H    0.111739
    28  C   -0.045779
    29  C    0.010627
    30  C   -0.119793
    31  H    0.126812
    32  C   -0.107528
    33  H    0.115745
    34  C   -0.101581
    35  H    0.114538
    36  C   -0.109571
    37  H    0.117766
    38  C   -0.114148
    39  H    0.137918
    40  C    0.008020
    41  C   -0.124181
    42  H    0.121509
    43  C   -0.109108
    44  H    0.114085
    45  C   -0.099044
    46  H    0.114236
    47  C   -0.110297
    48  H    0.119069
    49  C   -0.103849
    50  H    0.151617
    51  C    0.004401
    52  C   -0.119071
    53  H    0.115297
    54  C   -0.106622
    55  H    0.113002
    56  C   -0.100371
    57  H    0.112726
    58  C   -0.109048
    59  H    0.116873
    60  C   -0.106917
    61  H    0.143942
    62  C    0.023057
    63  C   -0.125444
    64  H    0.119100
    65  C   -0.107979
    66  H    0.112908
    67  C   -0.101505
    68  H    0.112434
    69  C   -0.108375
    70  H    0.115066
    71  C   -0.109717
    72  H    0.135095
 Sum of Mulliken charges =   0.00000
 Mulliken charges with hydrogens summed into heavy atoms:
               1
     1  Ru  -0.454466
     2  Zn   0.031552
     3  P    0.146581
     4  P    0.118401
     5  O   -0.308333
     6  O   -0.319685
     7  C    0.272520
     8  C    0.282099
     9  C    0.064267
    10  C   -0.039472
    11  C   -0.003365
    13  C   -0.007141
    15  C    0.007979
    17  C   -0.051030
    19  C    0.058827
    20  C   -0.044488
    22  C    0.011541
    24  C   -0.008137
    26  C    0.006432
    28  C   -0.045779
    29  C    0.010627
    30  C    0.007019
    32  C    0.008217
    34  C    0.012958
    36  C    0.008195
    38  C    0.023770
    40  C    0.008020
    41  C   -0.002671
    43  C    0.004977
    45  C    0.015192
    47  C    0.008772
    49  C    0.047768
    51  C    0.004401
    52  C   -0.003774
    54  C    0.006380
    56  C    0.012354
    58  C    0.007824
    60  C    0.037025
    62  C    0.023057
    63  C   -0.006344
    65  C    0.004929
    67  C    0.010929
    69  C    0.006691
    71  C    0.025378
 Electronic spatial extent (au):  <R**2>=          23967.1817
 Charge=              0.0000 electrons
 Dipole moment (field-independent basis, Debye):
    X=              0.0334    Y=              0.5195    Z=              3.1375  Tot=              3.1804
 Quadrupole moment (field-independent basis, Debye-Ang):
   XX=           -239.2978   YY=           -273.4893   ZZ=           -270.1489
   XY=             -2.0321   XZ=              4.5104   YZ=              3.4902
 Traceless Quadrupole moment (field-independent basis, Debye-Ang):
   XX=             21.6808   YY=            -12.5107   ZZ=             -9.1702
   XY=             -2.0321   XZ=              4.5104   YZ=              3.4902
 Octapole moment (field-independent basis, Debye-Ang**2):
  XXX=             -7.7514  YYY=            119.9731  ZZZ=             33.7816  XYY=             14.2628
  XXY=            -27.7838  XXZ=            -32.5304  XZZ=             -8.7082  YZZ=            -60.1682
  YYZ=              1.1599  XYZ=             16.0308
 Hexadecapole moment (field-independent basis, Debye-Ang**3):
 XXXX=         -17132.6319 YYYY=          -7572.6369 ZZZZ=          -6778.1421 XXXY=           -123.3594
 XXXZ=            -55.0644 YYYX=             13.9691 YYYZ=             41.5399 ZZZX=            362.3872
 ZZZY=             34.7948 XXYY=          -3903.7788 XXZZ=          -3835.8177 YYZZ=          -2248.8434
 XXYZ=             26.9520 YYXZ=           -227.7765 ZZXY=              9.6539
 N-N= 5.467004311934D+03 E-N=-1.546804539517D+04  KE= 1.793694489000D+03
 No NMR shielding tensors so no spin-rotation constants.
 Leave Link  601 at Sat Apr 11 14:27:45 2020, MaxMem=  1879048192 cpu:         6.1
 (Enter /home/programs/G09_D/g09/l9999.exe)
 1\1\GINC-COMP14\SP\RBP86\Gen\C38H28O2P2Ru1Zn1\STUART\11-Apr-2020\0\\#p
  bp86 gen pseudo=read int=grid=ultrafine scrf=(pcm,solvent=benzene)\\R
 u (PPh3)3 H4 from high temp MD\\0,1\Ru,0,0.0112,-0.5069,-0.30177\Zn,0,
 0.12405,2.17559,-0.04406\P,0,2.34087,-0.21881,-0.06703\P,0,-2.33061,-0
 .19198,-0.03709\O,0,0.07464,-3.54971,0.02596\O,0,-0.02443,0.52358,-3.1
 4463\C,0,0.05476,-2.37033,0.08552\C,0,-0.01811,0.2655,-1.98669\C,0,2.0
 1669,2.54377,-0.47214\C,0,2.95006,1.47636,-0.55561\C,0,4.28788,1.68966
 ,-0.94437\H,0,4.98761,0.84945,-1.00953\C,0,4.72171,2.98547,-1.26717\H,
 0,5.75659,3.15059,-1.58574\C,0,3.82452,4.06135,-1.18318\H,0,4.15837,5.
 07431,-1.43578\C,0,2.49469,3.83889,-0.78305\H,0,1.81443,4.69794,-0.729
 89\C,0,-1.67815,2.48398,0.69167\C,0,-1.99734,3.72813,1.29023\H,0,-1.24
 667,4.5283,1.3066\C,0,-3.25054,3.97738,1.87435\H,0,-3.46292,4.95422,2.
 32378\C,0,-4.2254,2.96743,1.89352\H,0,-5.20148,3.14654,2.35723\C,0,-3.
 94053,1.71718,1.3244\H,0,-4.69247,0.92108,1.36299\C,0,-2.68695,1.48156
 ,0.71752\C,0,2.77162,-0.33874,1.74778\C,0,3.25996,0.76906,2.47088\H,0,
 3.43299,1.72022,1.9588\C,0,3.52596,0.65436,3.84598\H,0,3.90323,1.52238
 ,4.39699\C,0,3.31343,-0.56389,4.50908\H,0,3.52233,-0.65054,5.58054\C,0
 ,2.8312,-1.67328,3.79295\H,0,2.66474,-2.62817,4.30267\C,0,2.55334,-1.5
 6172,2.42296\H,0,2.16948,-2.42759,1.87426\C,0,3.49901,-1.42389,-0.8822
 4\C,0,4.74442,-1.77576,-0.32021\H,0,5.04608,-1.35936,0.64653\C,0,5.592
 53,-2.67102,-0.99199\H,0,6.5559,-2.94272,-0.54747\C,0,5.20517,-3.2192,
 -2.22567\H,0,5.86661,-3.9203,-2.74541\C,0,3.96429,-2.87503,-2.78664\H,
 0,3.65334,-3.30784,-3.74311\C,0,3.1107,-1.98476,-2.11725\H,0,2.1342,-1
 .72971,-2.54235\C,0,-3.35026,-0.27907,-1.59297\C,0,-4.28923,0.70784,-1
 .95219\H,0,-4.45118,1.57217,-1.30093\C,0,-5.01283,0.58823,-3.15112\H,0
 ,-5.73552,1.36395,-3.42581\C,0,-4.80922,-0.51545,-3.99341\H,0,-5.37315
 ,-0.60446,-4.92786\C,0,-3.87169,-1.5011,-3.64015\H,0,-3.70005,-2.35923
 ,-4.29832\C,0,-3.13909,-1.38107,-2.45075\H,0,-2.38959,-2.13604,-2.1888
 3\C,0,-3.21803,-1.36291,1.11607\C,0,-4.50848,-1.86452,0.85317\H,0,-5.0
 2337,-1.59038,-0.07306\C,0,-5.13291,-2.72464,1.77303\H,0,-6.13306,-3.1
 1472,1.55601\C,0,-4.47859,-3.08428,2.96111\H,0,-4.96615,-3.75649,3.674
 93\C,0,-3.19182,-2.58599,3.22846\H,0,-2.67235,-2.86869,4.15011\C,0,-2.
 56246,-1.735,2.30883\H,0,-1.54992,-1.36513,2.50906\\Version=EM64L-G09R
 evD.01\State=1-A\HF=-1950.8707241\RMSD=4.919e-09\Dipole=0.0131548,0.20
 43975,1.2343957\Quadrupole=16.1191677,-9.3013632,-6.8178045,-1.5108236
 ,3.3533643,2.5948681\PG=C01 [X(C38H28O2P2Ru1Zn1)]\\@


 FIREWORKS ENDED
 AND SPECTATORS GONE AWAY....
 AH, HOW VAST AND DARK
                     SHIKI
 Job cpu time:       0 days  1 hours 43 minutes 42.0 seconds.
 File lengths (MBytes):  RWF=    843 Int=      0 D2E=      0 Chk=     25 Scr=      1
 Normal termination of Gaussian 09 at Sat Apr 11 14:27:45 2020.
