 Entering Gaussian System, Link 0=g09
 Input=ru_znphos_co2_cis.com
 Output=ru_znphos_co2_cis.log
 Initial command:
 /home/programs/G09_D/g09/l1.exe "/state/partition1/stuart_2020-04-03-2310_29358/Gau-17969.inp" -scrdir="/state/partition1/stuart_2020-04-03-2310_29358/"
 Entering Link 1 = /home/programs/G09_D/g09/l1.exe PID=     17970.
  
 Copyright (c) 1988,1990,1992,1993,1995,1998,2003,2009,2013,
            Gaussian, Inc.  All Rights Reserved.
  
 This is part of the Gaussian(R) 09 program.  It is based on
 the Gaussian(R) 03 system (copyright 2003, Gaussian, Inc.),
 the Gaussian(R) 98 system (copyright 1998, Gaussian, Inc.),
 the Gaussian(R) 94 system (copyright 1995, Gaussian, Inc.),
 the Gaussian 92(TM) system (copyright 1992, Gaussian, Inc.),
 the Gaussian 90(TM) system (copyright 1990, Gaussian, Inc.),
 the Gaussian 88(TM) system (copyright 1988, Gaussian, Inc.),
 the Gaussian 86(TM) system (copyright 1986, Carnegie Mellon
 University), and the Gaussian 82(TM) system (copyright 1983,
 Carnegie Mellon University). Gaussian is a federally registered
 trademark of Gaussian, Inc.
  
 This software contains proprietary and confidential information,
 including trade secrets, belonging to Gaussian, Inc.
  
 This software is provided under written license and may be
 used, copied, transmitted, or stored only in accord with that
 written license.
  
 The following legend is applicable only to US Government
 contracts under FAR:
  
                    RESTRICTED RIGHTS LEGEND
  
 Use, reproduction and disclosure by the US Government is
 subject to restrictions as set forth in subparagraphs (a)
 and (c) of the Commercial Computer Software - Restricted
 Rights clause in FAR 52.227-19.
  
 Gaussian, Inc.
 340 Quinnipiac St., Bldg. 40, Wallingford CT 06492
  
  
 ---------------------------------------------------------------
 Warning -- This program may not be used in any manner that
 competes with the business of Gaussian, Inc. or will provide
 assistance to any competitor of Gaussian, Inc.  The licensee
 of this program is prohibited from giving any competitor of
 Gaussian, Inc. access to this program.  By using this program,
 the user acknowledges that Gaussian, Inc. is engaged in the
 business of creating and licensing software in the field of
 computational chemistry and represents and warrants to the
 licensee that it is not a competitor of Gaussian, Inc. and that
 it will not use this program in any manner prohibited above.
 ---------------------------------------------------------------
  

 Cite this work as:
 Gaussian 09, Revision D.01,
 M. J. Frisch, G. W. Trucks, H. B. Schlegel, G. E. Scuseria, 
 M. A. Robb, J. R. Cheeseman, G. Scalmani, V. Barone, B. Mennucci, 
 G. A. Petersson, H. Nakatsuji, M. Caricato, X. Li, H. P. Hratchian, 
 A. F. Izmaylov, J. Bloino, G. Zheng, J. L. Sonnenberg, M. Hada, 
 M. Ehara, K. Toyota, R. Fukuda, J. Hasegawa, M. Ishida, T. Nakajima, 
 Y. Honda, O. Kitao, H. Nakai, T. Vreven, J. A. Montgomery, Jr., 
 J. E. Peralta, F. Ogliaro, M. Bearpark, J. J. Heyd, E. Brothers, 
 K. N. Kudin, V. N. Staroverov, T. Keith, R. Kobayashi, J. Normand, 
 K. Raghavachari, A. Rendell, J. C. Burant, S. S. Iyengar, J. Tomasi, 
 M. Cossi, N. Rega, J. M. Millam, M. Klene, J. E. Knox, J. B. Cross, 
 V. Bakken, C. Adamo, J. Jaramillo, R. Gomperts, R. E. Stratmann, 
 O. Yazyev, A. J. Austin, R. Cammi, C. Pomelli, J. W. Ochterski, 
 R. L. Martin, K. Morokuma, V. G. Zakrzewski, G. A. Voth, 
 P. Salvador, J. J. Dannenberg, S. Dapprich, A. D. Daniels, 
 O. Farkas, J. B. Foresman, J. V. Ortiz, J. Cioslowski, 
 and D. J. Fox, Gaussian, Inc., Wallingford CT, 2013.
 
 ******************************************
 Gaussian 09:  EM64L-G09RevD.01 24-Apr-2013
                 3-Apr-2020 
 ******************************************
 %nproc=8
 Will use up to    8 processors via shared memory.
 %mem=14Gb
 %chk=ru_znphos_co2_cis.chk
 ----------------------------------------------------------------------
 #p bp86 opt IOp(1/19=11) gen pseudo=read int=(grid=ultrafine) freq=nor
 aman
 ----------------------------------------------------------------------
 1/14=-1,18=20,19=11,26=4,38=1/1,3;
 2/9=110,12=2,17=6,18=5,40=1/2;
 3/5=7,11=2,16=1,17=8,25=1,30=1,71=1,74=404,75=-5/1,2,3;
 4//1;
 5/5=2,38=5/2;
 6/7=2,8=2,9=2,10=2,28=1/1;
 7//1,2,3,16;
 1/14=-1,18=20,19=11,26=4/3(2);
 2/9=110/2;
 99//99;
 2/9=110/2;
 3/5=7,6=1,11=2,16=1,17=8,25=1,30=1,71=1,74=404,75=-5,82=7/1,2,3;
 4/5=5,16=3,69=1/1;
 5/5=2,38=5/2;
 7//1,2,3,16;
 1/14=-1,18=20,19=11,26=4/3(-5);
 2/9=110/2;
 6/7=2,8=2,9=2,10=2,19=2,28=1/1;
 99/9=1/99;
 Leave Link    1 at Fri Apr  3 23:10:35 2020, MaxMem=  1879048192 cpu:         0.9
 (Enter /home/programs/G09_D/g09/l101.exe)
 ---
 Rab
 ---
 Symbolic Z-matrix:
 Charge =  0 Multiplicity = 1
 Ru                    0.00004  -0.56342  -0.00041 
 Zn                   -0.00007   2.16189   0.00038 
 P                    -2.375    -0.18561   0.05226 
 P                     2.37508  -0.18554  -0.05229 
 O                     0.00025  -3.66451  -0.00258 
 O                     0.05983   0.352     2.96075 
 C                     0.00014  -2.49033  -0.00166 
 C                     0.04391  -0.00763   1.84105 
 C                    -1.87039   2.58083   0.50736 
 C                    -2.83564   1.54236   0.61505 
 C                    -4.14266   1.78722   1.09101 
 H                    -4.86452   0.96887   1.18335 
 C                    -4.51955   3.08563   1.46528 
 H                    -5.53008   3.27178   1.84436 
 C                    -3.59476   4.13599   1.35568 
 H                    -3.88239   5.15224   1.64864 
 C                    -2.2972    3.87908   0.88211 
 H                    -1.59149   4.7162    0.81679 
 C                     1.87049   2.58131  -0.50534 
 C                     2.29743   3.87986  -0.87891 
 H                     1.59158   4.71686  -0.81353 
 C                     3.5953    4.13725  -1.35133 
 H                     3.88304   5.15373  -1.64339 
 C                     4.52033   3.08709  -1.46091 
 H                     5.53113   3.27364  -1.83905 
 C                     4.14329   1.78837  -1.08787 
 H                     4.86531   0.97015  -1.18022 
 C                     2.83591   1.54302  -0.61312 
 C                    -3.19119  -0.36494  -1.61472 
 C                    -3.87688   0.69882  -2.2322 
 H                    -3.96178   1.66289  -1.72252 
 C                    -4.44974   0.52349  -3.50412 
 H                    -4.976     1.35837  -3.97841 
 C                    -4.34734  -0.71071  -4.16258 
 H                    -4.794    -0.84377  -5.15331 
 C                    -3.66518  -1.77584  -3.54868 
 H                    -3.57871  -2.74119  -4.05809 
 C                    -3.08439  -1.60413  -2.28466 
 H                    -2.54292  -2.43262  -1.81594 
 C                    -3.39461  -1.34248   1.10728 
 C                    -4.73271  -1.64732   0.77373 
 H                    -5.17715  -1.2341   -0.13704 
 C                    -5.49396  -2.49267   1.59675 
 H                    -6.52923  -2.72348   1.32461 
 C                    -4.92904  -3.04435   2.75757 
 H                    -5.52243  -3.70713   3.3958 
 C                    -3.59678  -2.75199   3.09044 
 H                    -3.14467  -3.18701   3.98762 
 C                    -2.83143  -1.91012   2.26864 
 H                    -1.78853  -1.70544   2.52449 
 C                     3.19084  -0.36679   1.61468 
 C                     3.87589   0.69644   2.23377 
 H                     3.96072   1.66115   1.7253 
 C                     4.44827   0.51973   3.50572 
 H                     4.97406   1.35421   3.98126 
 C                     4.34599  -0.71532   4.16261 
 H                     4.79224  -0.84944   5.15339 
 C                     3.66448  -1.77991   3.54709 
 H                     3.57814  -2.74592   4.05527 
 C                     3.08417  -1.60686   2.28303 
 H                     2.54324  -2.43497   1.81302 
 C                     3.39486  -1.34119  -1.10848 
 C                     4.73265  -1.64714  -0.77469 
 H                     5.17675  -1.23559   0.13698 
 C                     5.49399  -2.49143  -1.59871 
 H                     6.52899  -2.72315  -1.32638 
 C                     4.92952  -3.0409   -2.76077 
 H                     5.52301  -3.70284  -3.3998 
 C                     3.59755  -2.74742  -3.09393 
 H                     3.14579  -3.18071  -3.99211 
 C                     2.8321   -1.90665  -2.27112 
 H                     1.78942  -1.70111  -2.52721 
 
 NAtoms=     72 NQM=       72 NQMF=       0 NMMI=      0 NMMIF=      0
                NMic=       0 NMicF=      0.
                    Isotopes and Nuclear Properties:
 (Nuclear quadrupole moments (NQMom) in fm**2, nuclear magnetic moments (NMagM)
  in nuclear magnetons)

  Atom         1           2           3           4           5           6           7           8           9          10
 IAtWgt=         102          64          31          31          16          16          12          12          12          12
 AtmWgt= 101.9037000  63.9291454  30.9737634  30.9737634  15.9949146  15.9949146  12.0000000  12.0000000  12.0000000  12.0000000
 NucSpn=           0           0           1           1           0           0           0           0           0           0
 AtZEff=   0.0000000   0.0000000   0.0000000   0.0000000   0.0000000   0.0000000   0.0000000   0.0000000   0.0000000   0.0000000
 NQMom=    0.0000000   0.0000000   0.0000000   0.0000000   0.0000000   0.0000000   0.0000000   0.0000000   0.0000000   0.0000000
 NMagM=    0.0000000   0.0000000   1.1316000   1.1316000   0.0000000   0.0000000   0.0000000   0.0000000   0.0000000   0.0000000
 AtZNuc=  44.0000000  30.0000000  15.0000000  15.0000000   8.0000000   8.0000000   6.0000000   6.0000000   6.0000000   6.0000000

  Atom        11          12          13          14          15          16          17          18          19          20
 IAtWgt=          12           1          12           1          12           1          12           1          12          12
 AtmWgt=  12.0000000   1.0078250  12.0000000   1.0078250  12.0000000   1.0078250  12.0000000   1.0078250  12.0000000  12.0000000
 NucSpn=           0           1           0           1           0           1           0           1           0           0
 AtZEff=   0.0000000   0.0000000   0.0000000   0.0000000   0.0000000   0.0000000   0.0000000   0.0000000   0.0000000   0.0000000
 NQMom=    0.0000000   0.0000000   0.0000000   0.0000000   0.0000000   0.0000000   0.0000000   0.0000000   0.0000000   0.0000000
 NMagM=    0.0000000   2.7928460   0.0000000   2.7928460   0.0000000   2.7928460   0.0000000   2.7928460   0.0000000   0.0000000
 AtZNuc=   6.0000000   1.0000000   6.0000000   1.0000000   6.0000000   1.0000000   6.0000000   1.0000000   6.0000000   6.0000000

  Atom        21          22          23          24          25          26          27          28          29          30
 IAtWgt=           1          12           1          12           1          12           1          12          12          12
 AtmWgt=   1.0078250  12.0000000   1.0078250  12.0000000   1.0078250  12.0000000   1.0078250  12.0000000  12.0000000  12.0000000
 NucSpn=           1           0           1           0           1           0           1           0           0           0
 AtZEff=   0.0000000   0.0000000   0.0000000   0.0000000   0.0000000   0.0000000   0.0000000   0.0000000   0.0000000   0.0000000
 NQMom=    0.0000000   0.0000000   0.0000000   0.0000000   0.0000000   0.0000000   0.0000000   0.0000000   0.0000000   0.0000000
 NMagM=    2.7928460   0.0000000   2.7928460   0.0000000   2.7928460   0.0000000   2.7928460   0.0000000   0.0000000   0.0000000
 AtZNuc=   1.0000000   6.0000000   1.0000000   6.0000000   1.0000000   6.0000000   1.0000000   6.0000000   6.0000000   6.0000000

  Atom        31          32          33          34          35          36          37          38          39          40
 IAtWgt=           1          12           1          12           1          12           1          12           1          12
 AtmWgt=   1.0078250  12.0000000   1.0078250  12.0000000   1.0078250  12.0000000   1.0078250  12.0000000   1.0078250  12.0000000
 NucSpn=           1           0           1           0           1           0           1           0           1           0
 AtZEff=   0.0000000   0.0000000   0.0000000   0.0000000   0.0000000   0.0000000   0.0000000   0.0000000   0.0000000   0.0000000
 NQMom=    0.0000000   0.0000000   0.0000000   0.0000000   0.0000000   0.0000000   0.0000000   0.0000000   0.0000000   0.0000000
 NMagM=    2.7928460   0.0000000   2.7928460   0.0000000   2.7928460   0.0000000   2.7928460   0.0000000   2.7928460   0.0000000
 AtZNuc=   1.0000000   6.0000000   1.0000000   6.0000000   1.0000000   6.0000000   1.0000000   6.0000000   1.0000000   6.0000000

  Atom        41          42          43          44          45          46          47          48          49          50
 IAtWgt=          12           1          12           1          12           1          12           1          12           1
 AtmWgt=  12.0000000   1.0078250  12.0000000   1.0078250  12.0000000   1.0078250  12.0000000   1.0078250  12.0000000   1.0078250
 NucSpn=           0           1           0           1           0           1           0           1           0           1
 AtZEff=   0.0000000   0.0000000   0.0000000   0.0000000   0.0000000   0.0000000   0.0000000   0.0000000   0.0000000   0.0000000
 NQMom=    0.0000000   0.0000000   0.0000000   0.0000000   0.0000000   0.0000000   0.0000000   0.0000000   0.0000000   0.0000000
 NMagM=    0.0000000   2.7928460   0.0000000   2.7928460   0.0000000   2.7928460   0.0000000   2.7928460   0.0000000   2.7928460
 AtZNuc=   6.0000000   1.0000000   6.0000000   1.0000000   6.0000000   1.0000000   6.0000000   1.0000000   6.0000000   1.0000000

  Atom        51          52          53          54          55          56          57          58          59          60
 IAtWgt=          12          12           1          12           1          12           1          12           1          12
 AtmWgt=  12.0000000  12.0000000   1.0078250  12.0000000   1.0078250  12.0000000   1.0078250  12.0000000   1.0078250  12.0000000
 NucSpn=           0           0           1           0           1           0           1           0           1           0
 AtZEff=   0.0000000   0.0000000   0.0000000   0.0000000   0.0000000   0.0000000   0.0000000   0.0000000   0.0000000   0.0000000
 NQMom=    0.0000000   0.0000000   0.0000000   0.0000000   0.0000000   0.0000000   0.0000000   0.0000000   0.0000000   0.0000000
 NMagM=    0.0000000   0.0000000   2.7928460   0.0000000   2.7928460   0.0000000   2.7928460   0.0000000   2.7928460   0.0000000
 AtZNuc=   6.0000000   6.0000000   1.0000000   6.0000000   1.0000000   6.0000000   1.0000000   6.0000000   1.0000000   6.0000000

  Atom        61          62          63          64          65          66          67          68          69          70
 IAtWgt=           1          12          12           1          12           1          12           1          12           1
 AtmWgt=   1.0078250  12.0000000  12.0000000   1.0078250  12.0000000   1.0078250  12.0000000   1.0078250  12.0000000   1.0078250
 NucSpn=           1           0           0           1           0           1           0           1           0           1
 AtZEff=   0.0000000   0.0000000   0.0000000   0.0000000   0.0000000   0.0000000   0.0000000   0.0000000   0.0000000   0.0000000
 NQMom=    0.0000000   0.0000000   0.0000000   0.0000000   0.0000000   0.0000000   0.0000000   0.0000000   0.0000000   0.0000000
 NMagM=    2.7928460   0.0000000   0.0000000   2.7928460   0.0000000   2.7928460   0.0000000   2.7928460   0.0000000   2.7928460
 AtZNuc=   1.0000000   6.0000000   6.0000000   1.0000000   6.0000000   1.0000000   6.0000000   1.0000000   6.0000000   1.0000000

  Atom        71          72
 IAtWgt=          12           1
 AtmWgt=  12.0000000   1.0078250
 NucSpn=           0           1
 AtZEff=   0.0000000   0.0000000
 NQMom=    0.0000000   0.0000000
 NMagM=    0.0000000   2.7928460
 AtZNuc=   6.0000000   1.0000000
 Leave Link  101 at Fri Apr  3 23:10:35 2020, MaxMem=  1879048192 cpu:         2.8
 (Enter /home/programs/G09_D/g09/l103.exe)

 GradGradGradGradGradGradGradGradGradGradGradGradGradGradGradGradGradGrad
 Berny optimization.
 Initialization pass.
                           ----------------------------
                           !    Initial Parameters    !
                           ! (Angstroms and Degrees)  !
 --------------------------                            --------------------------
 ! Name  Definition              Value          Derivative Info.                !
 --------------------------------------------------------------------------------
 ! R1    R(1,2)                  2.7253         estimate D2E/DX2                !
 ! R2    R(1,3)                  2.4055         estimate D2E/DX2                !
 ! R3    R(1,4)                  2.4055         estimate D2E/DX2                !
 ! R4    R(1,7)                  1.9269         estimate D2E/DX2                !
 ! R5    R(1,8)                  1.924          estimate D2E/DX2                !
 ! R6    R(2,9)                  1.9826         estimate D2E/DX2                !
 ! R7    R(2,19)                 1.9826         estimate D2E/DX2                !
 ! R8    R(3,10)                 1.8748         estimate D2E/DX2                !
 ! R9    R(3,29)                 1.8647         estimate D2E/DX2                !
 ! R10   R(3,40)                 1.8684         estimate D2E/DX2                !
 ! R11   R(4,28)                 1.8748         estimate D2E/DX2                !
 ! R12   R(4,51)                 1.8647         estimate D2E/DX2                !
 ! R13   R(4,62)                 1.8684         estimate D2E/DX2                !
 ! R14   R(5,7)                  1.1742         estimate D2E/DX2                !
 ! R15   R(6,8)                  1.1761         estimate D2E/DX2                !
 ! R16   R(9,10)                 1.4219         estimate D2E/DX2                !
 ! R17   R(9,17)                 1.4171         estimate D2E/DX2                !
 ! R18   R(10,11)                1.4124         estimate D2E/DX2                !
 ! R19   R(11,12)                1.0951         estimate D2E/DX2                !
 ! R20   R(11,13)                1.4029         estimate D2E/DX2                !
 ! R21   R(13,14)                1.0952         estimate D2E/DX2                !
 ! R22   R(13,15)                1.4037         estimate D2E/DX2                !
 ! R23   R(15,16)                1.096          estimate D2E/DX2                !
 ! R24   R(15,17)                1.405          estimate D2E/DX2                !
 ! R25   R(17,18)                1.0968         estimate D2E/DX2                !
 ! R26   R(19,20)                1.4171         estimate D2E/DX2                !
 ! R27   R(19,28)                1.4219         estimate D2E/DX2                !
 ! R28   R(20,21)                1.0968         estimate D2E/DX2                !
 ! R29   R(20,22)                1.405          estimate D2E/DX2                !
 ! R30   R(22,23)                1.096          estimate D2E/DX2                !
 ! R31   R(22,24)                1.4038         estimate D2E/DX2                !
 ! R32   R(24,25)                1.0952         estimate D2E/DX2                !
 ! R33   R(24,26)                1.4029         estimate D2E/DX2                !
 ! R34   R(26,27)                1.0951         estimate D2E/DX2                !
 ! R35   R(26,28)                1.4124         estimate D2E/DX2                !
 ! R36   R(29,30)                1.4082         estimate D2E/DX2                !
 ! R37   R(29,38)                1.4127         estimate D2E/DX2                !
 ! R38   R(30,31)                1.0938         estimate D2E/DX2                !
 ! R39   R(30,32)                1.4059         estimate D2E/DX2                !
 ! R40   R(32,33)                1.095          estimate D2E/DX2                !
 ! R41   R(32,34)                1.4026         estimate D2E/DX2                !
 ! R42   R(34,35)                1.0949         estimate D2E/DX2                !
 ! R43   R(34,36)                1.406          estimate D2E/DX2                !
 ! R44   R(36,37)                1.0949         estimate D2E/DX2                !
 ! R45   R(36,38)                1.4016         estimate D2E/DX2                !
 ! R46   R(38,39)                1.0951         estimate D2E/DX2                !
 ! R47   R(40,41)                1.4123         estimate D2E/DX2                !
 ! R48   R(40,49)                1.41           estimate D2E/DX2                !
 ! R49   R(41,42)                1.0944         estimate D2E/DX2                !
 ! R50   R(41,43)                1.4041         estimate D2E/DX2                !
 ! R51   R(43,44)                1.095          estimate D2E/DX2                !
 ! R52   R(43,45)                1.4039         estimate D2E/DX2                !
 ! R53   R(45,46)                1.0949         estimate D2E/DX2                !
 ! R54   R(45,47)                1.404          estimate D2E/DX2                !
 ! R55   R(47,48)                1.0948         estimate D2E/DX2                !
 ! R56   R(47,49)                1.4035         estimate D2E/DX2                !
 ! R57   R(49,50)                1.0932         estimate D2E/DX2                !
 ! R58   R(51,52)                1.4082         estimate D2E/DX2                !
 ! R59   R(51,60)                1.4127         estimate D2E/DX2                !
 ! R60   R(52,53)                1.0938         estimate D2E/DX2                !
 ! R61   R(52,54)                1.406          estimate D2E/DX2                !
 ! R62   R(54,55)                1.095          estimate D2E/DX2                !
 ! R63   R(54,56)                1.4026         estimate D2E/DX2                !
 ! R64   R(56,57)                1.0949         estimate D2E/DX2                !
 ! R65   R(56,58)                1.4059         estimate D2E/DX2                !
 ! R66   R(58,59)                1.0949         estimate D2E/DX2                !
 ! R67   R(58,60)                1.4016         estimate D2E/DX2                !
 ! R68   R(60,61)                1.0951         estimate D2E/DX2                !
 ! R69   R(62,63)                1.4123         estimate D2E/DX2                !
 ! R70   R(62,71)                1.41           estimate D2E/DX2                !
 ! R71   R(63,64)                1.0944         estimate D2E/DX2                !
 ! R72   R(63,65)                1.4041         estimate D2E/DX2                !
 ! R73   R(65,66)                1.095          estimate D2E/DX2                !
 ! R74   R(65,67)                1.4039         estimate D2E/DX2                !
 ! R75   R(67,68)                1.0949         estimate D2E/DX2                !
 ! R76   R(67,69)                1.404          estimate D2E/DX2                !
 ! R77   R(69,70)                1.0948         estimate D2E/DX2                !
 ! R78   R(69,71)                1.4035         estimate D2E/DX2                !
 ! R79   R(71,72)                1.0932         estimate D2E/DX2                !
 ! A1    A(2,1,3)               80.9609         estimate D2E/DX2                !
 ! A2    A(2,1,4)               80.9645         estimate D2E/DX2                !
 ! A3    A(2,1,8)               73.1931         estimate D2E/DX2                !
 ! A4    A(3,1,4)              161.9254         estimate D2E/DX2                !
 ! A5    A(3,1,7)               99.0402         estimate D2E/DX2                !
 ! A6    A(3,1,8)               87.4888         estimate D2E/DX2                !
 ! A7    A(4,1,7)               99.0343         estimate D2E/DX2                !
 ! A8    A(4,1,8)               87.2918         estimate D2E/DX2                !
 ! A9    A(7,1,8)              106.8275         estimate D2E/DX2                !
 ! A10   A(1,2,9)              102.2057         estimate D2E/DX2                !
 ! A11   A(1,2,19)             102.2067         estimate D2E/DX2                !
 ! A12   A(9,2,19)             155.5875         estimate D2E/DX2                !
 ! A13   A(1,3,10)             113.1993         estimate D2E/DX2                !
 ! A14   A(1,3,29)             113.4211         estimate D2E/DX2                !
 ! A15   A(1,3,40)             116.9952         estimate D2E/DX2                !
 ! A16   A(10,3,29)            104.4451         estimate D2E/DX2                !
 ! A17   A(10,3,40)            105.4915         estimate D2E/DX2                !
 ! A18   A(29,3,40)            101.9102         estimate D2E/DX2                !
 ! A19   A(1,4,28)             113.2027         estimate D2E/DX2                !
 ! A20   A(1,4,51)             113.4152         estimate D2E/DX2                !
 ! A21   A(1,4,62)             116.9954         estimate D2E/DX2                !
 ! A22   A(28,4,51)            104.4485         estimate D2E/DX2                !
 ! A23   A(28,4,62)            105.4867         estimate D2E/DX2                !
 ! A24   A(51,4,62)            101.9143         estimate D2E/DX2                !
 ! A25   A(2,9,10)             120.3615         estimate D2E/DX2                !
 ! A26   A(2,9,17)             123.0492         estimate D2E/DX2                !
 ! A27   A(10,9,17)            116.3991         estimate D2E/DX2                !
 ! A28   A(3,10,9)             118.9226         estimate D2E/DX2                !
 ! A29   A(3,10,11)            119.2308         estimate D2E/DX2                !
 ! A30   A(9,10,11)            121.8113         estimate D2E/DX2                !
 ! A31   A(10,11,12)           120.5873         estimate D2E/DX2                !
 ! A32   A(10,11,13)           119.9331         estimate D2E/DX2                !
 ! A33   A(12,11,13)           119.4752         estimate D2E/DX2                !
 ! A34   A(11,13,14)           119.8371         estimate D2E/DX2                !
 ! A35   A(11,13,15)           119.6515         estimate D2E/DX2                !
 ! A36   A(14,13,15)           120.5108         estimate D2E/DX2                !
 ! A37   A(13,15,16)           120.0015         estimate D2E/DX2                !
 ! A38   A(13,15,17)           119.8631         estimate D2E/DX2                !
 ! A39   A(16,15,17)           120.1326         estimate D2E/DX2                !
 ! A40   A(9,17,15)            122.3327         estimate D2E/DX2                !
 ! A41   A(9,17,18)            119.3197         estimate D2E/DX2                !
 ! A42   A(15,17,18)           118.3417         estimate D2E/DX2                !
 ! A43   A(2,19,20)            123.0496         estimate D2E/DX2                !
 ! A44   A(2,19,28)            120.3625         estimate D2E/DX2                !
 ! A45   A(20,19,28)           116.3984         estimate D2E/DX2                !
 ! A46   A(19,20,21)           119.3195         estimate D2E/DX2                !
 ! A47   A(19,20,22)           122.3335         estimate D2E/DX2                !
 ! A48   A(21,20,22)           118.3412         estimate D2E/DX2                !
 ! A49   A(20,22,23)           120.1335         estimate D2E/DX2                !
 ! A50   A(20,22,24)           119.8636         estimate D2E/DX2                !
 ! A51   A(23,22,24)           120.0001         estimate D2E/DX2                !
 ! A52   A(22,24,25)           120.5108         estimate D2E/DX2                !
 ! A53   A(22,24,26)           119.6507         estimate D2E/DX2                !
 ! A54   A(25,24,26)           119.838          estimate D2E/DX2                !
 ! A55   A(24,26,27)           119.476          estimate D2E/DX2                !
 ! A56   A(24,26,28)           119.9331         estimate D2E/DX2                !
 ! A57   A(27,26,28)           120.5865         estimate D2E/DX2                !
 ! A58   A(4,28,19)            118.9276         estimate D2E/DX2                !
 ! A59   A(4,28,26)            119.2254         estimate D2E/DX2                !
 ! A60   A(19,28,26)           121.8119         estimate D2E/DX2                !
 ! A61   A(3,29,30)            122.1727         estimate D2E/DX2                !
 ! A62   A(3,29,38)            118.3722         estimate D2E/DX2                !
 ! A63   A(30,29,38)           119.4379         estimate D2E/DX2                !
 ! A64   A(29,30,31)           119.9522         estimate D2E/DX2                !
 ! A65   A(29,30,32)           120.0585         estimate D2E/DX2                !
 ! A66   A(31,30,32)           119.9892         estimate D2E/DX2                !
 ! A67   A(30,32,33)           119.5125         estimate D2E/DX2                !
 ! A68   A(30,32,34)           120.3106         estimate D2E/DX2                !
 ! A69   A(33,32,34)           120.1769         estimate D2E/DX2                !
 ! A70   A(32,34,35)           120.1293         estimate D2E/DX2                !
 ! A71   A(32,34,36)           119.8058         estimate D2E/DX2                !
 ! A72   A(35,34,36)           120.0645         estimate D2E/DX2                !
 ! A73   A(34,36,37)           120.2052         estimate D2E/DX2                !
 ! A74   A(34,36,38)           120.1333         estimate D2E/DX2                !
 ! A75   A(37,36,38)           119.6601         estimate D2E/DX2                !
 ! A76   A(29,38,36)           120.2512         estimate D2E/DX2                !
 ! A77   A(29,38,39)           119.8682         estimate D2E/DX2                !
 ! A78   A(36,38,39)           119.8803         estimate D2E/DX2                !
 ! A79   A(3,40,41)            121.1519         estimate D2E/DX2                !
 ! A80   A(3,40,49)            119.7608         estimate D2E/DX2                !
 ! A81   A(41,40,49)           119.0811         estimate D2E/DX2                !
 ! A82   A(40,41,42)           119.986          estimate D2E/DX2                !
 ! A83   A(40,41,43)           120.3436         estimate D2E/DX2                !
 ! A84   A(42,41,43)           119.6658         estimate D2E/DX2                !
 ! A85   A(41,43,44)           119.5906         estimate D2E/DX2                !
 ! A86   A(41,43,45)           120.2042         estimate D2E/DX2                !
 ! A87   A(44,43,45)           120.2043         estimate D2E/DX2                !
 ! A88   A(43,45,46)           120.1182         estimate D2E/DX2                !
 ! A89   A(43,45,47)           119.7381         estimate D2E/DX2                !
 ! A90   A(46,45,47)           120.1414         estimate D2E/DX2                !
 ! A91   A(45,47,48)           120.2261         estimate D2E/DX2                !
 ! A92   A(45,47,49)           120.2339         estimate D2E/DX2                !
 ! A93   A(48,47,49)           119.5373         estimate D2E/DX2                !
 ! A94   A(40,49,47)           120.3941         estimate D2E/DX2                !
 ! A95   A(40,49,50)           119.8973         estimate D2E/DX2                !
 ! A96   A(47,49,50)           119.7032         estimate D2E/DX2                !
 ! A97   A(4,51,52)            122.1708         estimate D2E/DX2                !
 ! A98   A(4,51,60)            118.373          estimate D2E/DX2                !
 ! A99   A(52,51,60)           119.4387         estimate D2E/DX2                !
 ! A100  A(51,52,53)           119.9522         estimate D2E/DX2                !
 ! A101  A(51,52,54)           120.0584         estimate D2E/DX2                !
 ! A102  A(53,52,54)           119.9893         estimate D2E/DX2                !
 ! A103  A(52,54,55)           119.5121         estimate D2E/DX2                !
 ! A104  A(52,54,56)           120.3102         estimate D2E/DX2                !
 ! A105  A(55,54,56)           120.1776         estimate D2E/DX2                !
 ! A106  A(54,56,57)           120.1288         estimate D2E/DX2                !
 ! A107  A(54,56,58)           119.8057         estimate D2E/DX2                !
 ! A108  A(57,56,58)           120.0651         estimate D2E/DX2                !
 ! A109  A(56,58,59)           120.2042         estimate D2E/DX2                !
 ! A110  A(56,58,60)           120.1348         estimate D2E/DX2                !
 ! A111  A(59,58,60)           119.6597         estimate D2E/DX2                !
 ! A112  A(51,60,58)           120.2495         estimate D2E/DX2                !
 ! A113  A(51,60,61)           119.8686         estimate D2E/DX2                !
 ! A114  A(58,60,61)           119.8816         estimate D2E/DX2                !
 ! A115  A(4,62,63)            121.1564         estimate D2E/DX2                !
 ! A116  A(4,62,71)            119.7564         estimate D2E/DX2                !
 ! A117  A(63,62,71)           119.081          estimate D2E/DX2                !
 ! A118  A(62,63,64)           119.9856         estimate D2E/DX2                !
 ! A119  A(62,63,65)           120.3425         estimate D2E/DX2                !
 ! A120  A(64,63,65)           119.6674         estimate D2E/DX2                !
 ! A121  A(63,65,66)           119.5904         estimate D2E/DX2                !
 ! A122  A(63,65,67)           120.2056         estimate D2E/DX2                !
 ! A123  A(66,65,67)           120.2031         estimate D2E/DX2                !
 ! A124  A(65,67,68)           120.1186         estimate D2E/DX2                !
 ! A125  A(65,67,69)           119.7386         estimate D2E/DX2                !
 ! A126  A(68,67,69)           120.1406         estimate D2E/DX2                !
 ! A127  A(67,69,70)           120.2265         estimate D2E/DX2                !
 ! A128  A(67,69,71)           120.2321         estimate D2E/DX2                !
 ! A129  A(70,69,71)           119.5387         estimate D2E/DX2                !
 ! A130  A(62,71,69)           120.3953         estimate D2E/DX2                !
 ! A131  A(62,71,72)           119.897          estimate D2E/DX2                !
 ! A132  A(69,71,72)           119.7023         estimate D2E/DX2                !
 ! A133  L(2,1,7,3,-1)         180.0011         estimate D2E/DX2                !
 ! A134  L(1,7,5,34,-1)        179.9964         estimate D2E/DX2                !
 ! A135  L(1,8,6,9,-1)         178.8639         estimate D2E/DX2                !
 ! A136  L(2,1,7,3,-2)         179.9792         estimate D2E/DX2                !
 ! A137  L(1,7,5,34,-2)        179.9925         estimate D2E/DX2                !
 ! A138  L(1,8,6,9,-2)         180.1185         estimate D2E/DX2                !
 ! D1    D(3,1,2,9)             13.8954         estimate D2E/DX2                !
 ! D2    D(3,1,2,19)          -166.1358         estimate D2E/DX2                !
 ! D3    D(4,1,2,9)           -166.0908         estimate D2E/DX2                !
 ! D4    D(4,1,2,19)            13.878          estimate D2E/DX2                !
 ! D5    D(8,1,2,9)            -76.2024         estimate D2E/DX2                !
 ! D6    D(8,1,2,19)           103.7665         estimate D2E/DX2                !
 ! D7    D(2,1,3,10)           -18.6819         estimate D2E/DX2                !
 ! D8    D(2,1,3,29)           100.0962         estimate D2E/DX2                !
 ! D9    D(2,1,3,40)          -141.6695         estimate D2E/DX2                !
 ! D10   D(4,1,3,10)           -18.6381         estimate D2E/DX2                !
 ! D11   D(4,1,3,29)           100.1401         estimate D2E/DX2                !
 ! D12   D(4,1,3,40)          -141.6256         estimate D2E/DX2                !
 ! D13   D(7,1,3,10)           161.3389         estimate D2E/DX2                !
 ! D14   D(7,1,3,29)           -79.883          estimate D2E/DX2                !
 ! D15   D(7,1,3,40)            38.3513         estimate D2E/DX2                !
 ! D16   D(8,1,3,10)            54.6942         estimate D2E/DX2                !
 ! D17   D(8,1,3,29)           173.4723         estimate D2E/DX2                !
 ! D18   D(8,1,3,40)           -68.2934         estimate D2E/DX2                !
 ! D19   D(2,1,4,28)           -18.6525         estimate D2E/DX2                !
 ! D20   D(2,1,4,51)           100.1282         estimate D2E/DX2                !
 ! D21   D(2,1,4,62)          -141.6365         estimate D2E/DX2                !
 ! D22   D(3,1,4,28)           -18.6964         estimate D2E/DX2                !
 ! D23   D(3,1,4,51)           100.0843         estimate D2E/DX2                !
 ! D24   D(3,1,4,62)          -141.6803         estimate D2E/DX2                !
 ! D25   D(7,1,4,28)           161.3267         estimate D2E/DX2                !
 ! D26   D(7,1,4,51)           -79.8926         estimate D2E/DX2                !
 ! D27   D(7,1,4,62)            38.3427         estimate D2E/DX2                !
 ! D28   D(8,1,4,28)           -92.0586         estimate D2E/DX2                !
 ! D29   D(8,1,4,51)            26.7221         estimate D2E/DX2                !
 ! D30   D(8,1,4,62)           144.9574         estimate D2E/DX2                !
 ! D31   D(1,2,9,10)            -6.9408         estimate D2E/DX2                !
 ! D32   D(1,2,9,17)           167.8639         estimate D2E/DX2                !
 ! D33   D(19,2,9,10)          173.1329         estimate D2E/DX2                !
 ! D34   D(19,2,9,17)          -12.0625         estimate D2E/DX2                !
 ! D35   D(1,2,19,20)          167.8735         estimate D2E/DX2                !
 ! D36   D(1,2,19,28)           -6.9406         estimate D2E/DX2                !
 ! D37   D(9,2,19,20)          -12.2001         estimate D2E/DX2                !
 ! D38   D(9,2,19,28)          172.9857         estimate D2E/DX2                !
 ! D39   D(1,3,10,9)            21.6531         estimate D2E/DX2                !
 ! D40   D(1,3,10,11)         -160.4676         estimate D2E/DX2                !
 ! D41   D(29,3,10,9)         -102.1936         estimate D2E/DX2                !
 ! D42   D(29,3,10,11)          75.6857         estimate D2E/DX2                !
 ! D43   D(40,3,10,9)          150.7958         estimate D2E/DX2                !
 ! D44   D(40,3,10,11)         -31.3249         estimate D2E/DX2                !
 ! D45   D(1,3,29,30)         -119.1352         estimate D2E/DX2                !
 ! D46   D(1,3,29,38)           59.3435         estimate D2E/DX2                !
 ! D47   D(10,3,29,30)           4.5686         estimate D2E/DX2                !
 ! D48   D(10,3,29,38)        -176.9527         estimate D2E/DX2                !
 ! D49   D(40,3,29,30)         114.2151         estimate D2E/DX2                !
 ! D50   D(40,3,29,38)         -67.3062         estimate D2E/DX2                !
 ! D51   D(1,3,40,41)         -150.1763         estimate D2E/DX2                !
 ! D52   D(1,3,40,49)           30.7354         estimate D2E/DX2                !
 ! D53   D(10,3,40,41)          82.9567         estimate D2E/DX2                !
 ! D54   D(10,3,40,49)         -96.1317         estimate D2E/DX2                !
 ! D55   D(29,3,40,41)         -25.8885         estimate D2E/DX2                !
 ! D56   D(29,3,40,49)         155.0232         estimate D2E/DX2                !
 ! D57   D(1,4,28,19)           21.6122         estimate D2E/DX2                !
 ! D58   D(1,4,28,26)         -160.5023         estimate D2E/DX2                !
 ! D59   D(51,4,28,19)        -102.2315         estimate D2E/DX2                !
 ! D60   D(51,4,28,26)          75.654          estimate D2E/DX2                !
 ! D61   D(62,4,28,19)         150.7539         estimate D2E/DX2                !
 ! D62   D(62,4,28,26)         -31.3606         estimate D2E/DX2                !
 ! D63   D(1,4,51,52)         -119.1077         estimate D2E/DX2                !
 ! D64   D(1,4,51,60)           59.3603         estimate D2E/DX2                !
 ! D65   D(28,4,51,52)           4.5992         estimate D2E/DX2                !
 ! D66   D(28,4,51,60)        -176.9328         estimate D2E/DX2                !
 ! D67   D(62,4,51,52)         114.2429         estimate D2E/DX2                !
 ! D68   D(62,4,51,60)         -67.2891         estimate D2E/DX2                !
 ! D69   D(1,4,62,63)         -150.1353         estimate D2E/DX2                !
 ! D70   D(1,4,62,71)           30.7837         estimate D2E/DX2                !
 ! D71   D(28,4,62,63)          82.997          estimate D2E/DX2                !
 ! D72   D(28,4,62,71)         -96.084          estimate D2E/DX2                !
 ! D73   D(51,4,62,63)         -25.8517         estimate D2E/DX2                !
 ! D74   D(51,4,62,71)         155.0672         estimate D2E/DX2                !
 ! D75   D(2,9,10,3)            -8.0625         estimate D2E/DX2                !
 ! D76   D(2,9,10,11)          174.1153         estimate D2E/DX2                !
 ! D77   D(17,9,10,3)          176.7984         estimate D2E/DX2                !
 ! D78   D(17,9,10,11)          -1.0238         estimate D2E/DX2                !
 ! D79   D(2,9,17,15)         -174.0371         estimate D2E/DX2                !
 ! D80   D(2,9,17,18)            5.0652         estimate D2E/DX2                !
 ! D81   D(10,9,17,15)           0.9587         estimate D2E/DX2                !
 ! D82   D(10,9,17,18)        -179.939          estimate D2E/DX2                !
 ! D83   D(3,10,11,12)           3.328          estimate D2E/DX2                !
 ! D84   D(3,10,11,13)        -177.442          estimate D2E/DX2                !
 ! D85   D(9,10,11,12)        -178.8564         estimate D2E/DX2                !
 ! D86   D(9,10,11,13)           0.3736         estimate D2E/DX2                !
 ! D87   D(10,11,13,14)       -179.3405         estimate D2E/DX2                !
 ! D88   D(10,11,13,15)          0.3971         estimate D2E/DX2                !
 ! D89   D(12,11,13,14)         -0.102          estimate D2E/DX2                !
 ! D90   D(12,11,13,15)        179.6356         estimate D2E/DX2                !
 ! D91   D(11,13,15,16)       -179.8597         estimate D2E/DX2                !
 ! D92   D(11,13,15,17)         -0.4655         estimate D2E/DX2                !
 ! D93   D(14,13,15,16)         -0.1239         estimate D2E/DX2                !
 ! D94   D(14,13,15,17)        179.2703         estimate D2E/DX2                !
 ! D95   D(13,15,17,9)          -0.2373         estimate D2E/DX2                !
 ! D96   D(13,15,17,18)       -179.3479         estimate D2E/DX2                !
 ! D97   D(16,15,17,9)         179.1562         estimate D2E/DX2                !
 ! D98   D(16,15,17,18)          0.0455         estimate D2E/DX2                !
 ! D99   D(2,19,20,21)           5.0523         estimate D2E/DX2                !
 ! D100  D(2,19,20,22)        -174.0523         estimate D2E/DX2                !
 ! D101  D(28,19,20,21)       -179.9427         estimate D2E/DX2                !
 ! D102  D(28,19,20,22)          0.9527         estimate D2E/DX2                !
 ! D103  D(2,19,28,4)           -8.0379         estimate D2E/DX2                !
 ! D104  D(2,19,28,26)         174.1337         estimate D2E/DX2                !
 ! D105  D(20,19,28,4)         176.8141         estimate D2E/DX2                !
 ! D106  D(20,19,28,26)         -1.0144         estimate D2E/DX2                !
 ! D107  D(19,20,22,23)        179.157          estimate D2E/DX2                !
 ! D108  D(19,20,22,24)         -0.2388         estimate D2E/DX2                !
 ! D109  D(21,20,22,23)          0.044          estimate D2E/DX2                !
 ! D110  D(21,20,22,24)       -179.3517         estimate D2E/DX2                !
 ! D111  D(20,22,24,25)        179.2739         estimate D2E/DX2                !
 ! D112  D(20,22,24,26)         -0.4598         estimate D2E/DX2                !
 ! D113  D(23,22,24,25)         -0.1226         estimate D2E/DX2                !
 ! D114  D(23,22,24,26)       -179.8563         estimate D2E/DX2                !
 ! D115  D(22,24,26,27)        179.6332         estimate D2E/DX2                !
 ! D116  D(22,24,26,28)          0.3947         estimate D2E/DX2                !
 ! D117  D(25,24,26,27)         -0.1023         estimate D2E/DX2                !
 ! D118  D(25,24,26,28)       -179.3407         estimate D2E/DX2                !
 ! D119  D(24,26,28,4)        -177.454          estimate D2E/DX2                !
 ! D120  D(24,26,28,19)          0.3681         estimate D2E/DX2                !
 ! D121  D(27,26,28,4)           3.3161         estimate D2E/DX2                !
 ! D122  D(27,26,28,19)       -178.8618         estimate D2E/DX2                !
 ! D123  D(3,29,30,31)          -1.3344         estimate D2E/DX2                !
 ! D124  D(3,29,30,32)         178.5295         estimate D2E/DX2                !
 ! D125  D(38,29,30,31)       -179.7974         estimate D2E/DX2                !
 ! D126  D(38,29,30,32)          0.0665         estimate D2E/DX2                !
 ! D127  D(3,29,38,36)        -179.0152         estimate D2E/DX2                !
 ! D128  D(3,29,38,39)           0.7835         estimate D2E/DX2                !
 ! D129  D(30,29,38,36)         -0.4938         estimate D2E/DX2                !
 ! D130  D(30,29,38,39)        179.3049         estimate D2E/DX2                !
 ! D131  D(29,30,32,33)       -179.6545         estimate D2E/DX2                !
 ! D132  D(29,30,32,34)          0.2699         estimate D2E/DX2                !
 ! D133  D(31,30,32,33)          0.2093         estimate D2E/DX2                !
 ! D134  D(31,30,32,34)       -179.8663         estimate D2E/DX2                !
 ! D135  D(30,32,34,35)       -179.9597         estimate D2E/DX2                !
 ! D136  D(30,32,34,36)         -0.1804         estimate D2E/DX2                !
 ! D137  D(33,32,34,35)         -0.0358         estimate D2E/DX2                !
 ! D138  D(33,32,34,36)        179.7435         estimate D2E/DX2                !
 ! D139  D(32,34,36,37)       -179.8164         estimate D2E/DX2                !
 ! D140  D(32,34,36,38)         -0.2477         estimate D2E/DX2                !
 ! D141  D(35,34,36,37)         -0.037          estimate D2E/DX2                !
 ! D142  D(35,34,36,38)        179.5318         estimate D2E/DX2                !
 ! D143  D(34,36,38,29)          0.5862         estimate D2E/DX2                !
 ! D144  D(34,36,38,39)       -179.2125         estimate D2E/DX2                !
 ! D145  D(37,36,38,29)       -179.8427         estimate D2E/DX2                !
 ! D146  D(37,36,38,39)          0.3586         estimate D2E/DX2                !
 ! D147  D(3,40,41,42)           2.3687         estimate D2E/DX2                !
 ! D148  D(3,40,41,43)        -178.4104         estimate D2E/DX2                !
 ! D149  D(49,40,41,42)       -178.5369         estimate D2E/DX2                !
 ! D150  D(49,40,41,43)          0.684          estimate D2E/DX2                !
 ! D151  D(3,40,49,47)         178.2636         estimate D2E/DX2                !
 ! D152  D(3,40,49,50)          -2.5879         estimate D2E/DX2                !
 ! D153  D(41,40,49,47)         -0.8436         estimate D2E/DX2                !
 ! D154  D(41,40,49,50)        178.3048         estimate D2E/DX2                !
 ! D155  D(40,41,43,44)       -179.7952         estimate D2E/DX2                !
 ! D156  D(40,41,43,45)         -0.1368         estimate D2E/DX2                !
 ! D157  D(42,41,43,44)         -0.5718         estimate D2E/DX2                !
 ! D158  D(42,41,43,45)        179.0866         estimate D2E/DX2                !
 ! D159  D(41,43,45,46)       -179.7109         estimate D2E/DX2                !
 ! D160  D(41,43,45,47)         -0.2594         estimate D2E/DX2                !
 ! D161  D(44,43,45,46)         -0.0546         estimate D2E/DX2                !
 ! D162  D(44,43,45,47)        179.3968         estimate D2E/DX2                !
 ! D163  D(43,45,47,48)       -179.2981         estimate D2E/DX2                !
 ! D164  D(43,45,47,49)          0.1002         estimate D2E/DX2                !
 ! D165  D(46,45,47,48)          0.1532         estimate D2E/DX2                !
 ! D166  D(46,45,47,49)        179.5515         estimate D2E/DX2                !
 ! D167  D(45,47,49,40)          0.4571         estimate D2E/DX2                !
 ! D168  D(45,47,49,50)       -178.6929         estimate D2E/DX2                !
 ! D169  D(48,47,49,40)        179.8596         estimate D2E/DX2                !
 ! D170  D(48,47,49,50)          0.7095         estimate D2E/DX2                !
 ! D171  D(4,51,52,53)          -1.3484         estimate D2E/DX2                !
 ! D172  D(4,51,52,54)         178.5192         estimate D2E/DX2                !
 ! D173  D(60,51,52,53)       -179.8006         estimate D2E/DX2                !
 ! D174  D(60,51,52,54)          0.067          estimate D2E/DX2                !
 ! D175  D(4,51,60,58)        -179.0048         estimate D2E/DX2                !
 ! D176  D(4,51,60,61)           0.7974         estimate D2E/DX2                !
 ! D177  D(52,51,60,58)         -0.4938         estimate D2E/DX2                !
 ! D178  D(52,51,60,61)        179.3085         estimate D2E/DX2                !
 ! D179  D(51,52,54,55)       -179.6561         estimate D2E/DX2                !
 ! D180  D(51,52,54,56)          0.2684         estimate D2E/DX2                !
 ! D181  D(53,52,54,55)          0.2114         estimate D2E/DX2                !
 ! D182  D(53,52,54,56)       -179.8641         estimate D2E/DX2                !
 ! D183  D(52,54,56,57)       -179.9571         estimate D2E/DX2                !
 ! D184  D(52,54,56,58)         -0.1785         estimate D2E/DX2                !
 ! D185  D(55,54,56,57)         -0.0331         estimate D2E/DX2                !
 ! D186  D(55,54,56,58)        179.7455         estimate D2E/DX2                !
 ! D187  D(54,56,58,59)       -179.8181         estimate D2E/DX2                !
 ! D188  D(54,56,58,60)         -0.2491         estimate D2E/DX2                !
 ! D189  D(57,56,58,59)         -0.0394         estimate D2E/DX2                !
 ! D190  D(57,56,58,60)        179.5297         estimate D2E/DX2                !
 ! D191  D(56,58,60,51)          0.5866         estimate D2E/DX2                !
 ! D192  D(56,58,60,61)       -179.2156         estimate D2E/DX2                !
 ! D193  D(59,58,60,51)       -179.842          estimate D2E/DX2                !
 ! D194  D(59,58,60,61)          0.3558         estimate D2E/DX2                !
 ! D195  D(4,62,63,64)           2.3723         estimate D2E/DX2                !
 ! D196  D(4,62,63,65)        -178.4039         estimate D2E/DX2                !
 ! D197  D(71,62,63,64)       -178.5405         estimate D2E/DX2                !
 ! D198  D(71,62,63,65)          0.6833         estimate D2E/DX2                !
 ! D199  D(4,62,71,69)         178.2551         estimate D2E/DX2                !
 ! D200  D(4,62,71,72)          -2.5951         estimate D2E/DX2                !
 ! D201  D(63,62,71,69)         -0.8451         estimate D2E/DX2                !
 ! D202  D(63,62,71,72)        178.3047         estimate D2E/DX2                !
 ! D203  D(62,63,65,66)       -179.7935         estimate D2E/DX2                !
 ! D204  D(62,63,65,67)         -0.135          estimate D2E/DX2                !
 ! D205  D(64,63,65,66)         -0.5673         estimate D2E/DX2                !
 ! D206  D(64,63,65,67)        179.0913         estimate D2E/DX2                !
 ! D207  D(63,65,67,68)       -179.7129         estimate D2E/DX2                !
 ! D208  D(63,65,67,69)         -0.2602         estimate D2E/DX2                !
 ! D209  D(66,65,67,68)         -0.0564         estimate D2E/DX2                !
 ! D210  D(66,65,67,69)        179.3963         estimate D2E/DX2                !
 ! D211  D(65,67,69,70)       -179.2995         estimate D2E/DX2                !
 ! D212  D(65,67,69,71)          0.0987         estimate D2E/DX2                !
 ! D213  D(68,67,69,70)          0.1531         estimate D2E/DX2                !
 ! D214  D(68,67,69,71)        179.5513         estimate D2E/DX2                !
 ! D215  D(67,69,71,62)          0.4597         estimate D2E/DX2                !
 ! D216  D(67,69,71,72)       -178.6917         estimate D2E/DX2                !
 ! D217  D(70,69,71,62)        179.8621         estimate D2E/DX2                !
 ! D218  D(70,69,71,72)          0.7107         estimate D2E/DX2                !
 --------------------------------------------------------------------------------
 Trust Radius=3.00D-01 FncErr=1.00D-07 GrdErr=1.00D-06
 Number of steps in this run=    432 maximum allowed number of steps=    432.
 GradGradGradGradGradGradGradGradGradGradGradGradGradGradGradGradGradGrad

 Leave Link  103 at Fri Apr  3 23:10:36 2020, MaxMem=  1879048192 cpu:         0.1
 (Enter /home/programs/G09_D/g09/l202.exe)
 Stoichiometry    C38H28O2P2RuZn
 Framework group  C1[X(C38H28O2P2RuZn)]
 Deg. of freedom   210
 Full point group                 C1      NOp   1
 Largest Abelian subgroup         C1      NOp   1
 Largest concise Abelian subgroup C1      NOp   1
                         Standard orientation:                         
 ---------------------------------------------------------------------
 Center     Atomic      Atomic             Coordinates (Angstroms)
 Number     Number       Type             X           Y           Z
 ---------------------------------------------------------------------
      1         44           0        0.001905   -0.558598    0.075245
      2         30           0        0.001811    2.165387    0.160212
      3         15           0        2.376957   -0.179199    0.036367
      4         15           0       -2.373204   -0.182657    0.137113
      5          8           0        0.001926   -3.658221   -0.020167
      6          8           0       -0.055620    0.449544   -2.855690
      7          6           0        0.001948   -2.484593    0.015861
      8          6           0       -0.040555    0.054859   -1.747848
      9          6           0        1.872498    2.600167   -0.331856
     10          6           0        2.837911    1.565648   -0.471407
     11          6           0        4.145287    1.825429   -0.938393
     12          1           0        4.867281    1.010426   -1.055868
     13          6           0        4.522375    3.134992   -1.271323
     14          1           0        5.533189    3.333029   -1.643559
     15          6           0        3.597420    4.181337   -1.129457
     16          1           0        3.885204    5.206317   -1.390066
     17          6           0        2.299506    3.909587   -0.665231
     18          1           0        1.593682    4.744202   -0.574160
     19          6           0       -1.869179    2.568592    0.677401
     20          6           0       -2.296511    3.854723    1.091309
     21          1           0       -1.590672    4.693401    1.052857
     22          6           0       -3.594772    4.097055    1.570569
     23          1           0       -3.882819    5.103827    1.894242
     24          6           0       -4.519809    3.043920    1.646318
     25          1           0       -5.530921    3.218428    2.029342
     26          6           0       -4.142378    1.757601    1.232895
     27          1           0       -4.864409    0.936843    1.298881
     28          6           0       -2.834606    1.527376    0.751693
     29          6           0        3.191846   -0.410853    1.697523
     30          6           0        3.876969    0.632984    2.348712
     31          1           0        3.962199    1.612619    1.869688
     32          6           0        4.448839    0.417747    3.614937
     33          1           0        4.974663    1.237316    4.115679
     34          6           0        4.346013   -0.836567    4.234154
     35          1           0        4.791902   -1.000713    5.220559
     36          6           0        3.664417   -1.881886    3.586503
     37          1           0        3.577618   -2.862792    4.065216
     38          6           0        3.084611   -1.670516    2.328053
     39          1           0        2.543573   -2.483874    1.833068
     40          6           0        3.397485   -1.302246   -1.053727
     41          6           0        4.735345   -1.617364   -0.728877
     42          1           0        5.179036   -1.232985    0.194795
     43          6           0        5.497307   -2.436359   -1.577488
     44          1           0        6.532379   -2.675567   -1.311928
     45          6           0        4.933344   -2.951267   -2.755539
     46          1           0        5.527286   -3.593606   -3.413839
     47          6           0        3.601325   -2.648645   -3.080098
     48          1           0        3.149955   -3.055241   -3.990879
     49          6           0        2.835264   -1.833089   -2.232819
     50          1           0        1.792550   -1.620512   -2.482926
     51          6           0       -3.187636   -0.311404   -1.535379
     52          6           0       -3.872277    0.770746   -2.121248
     53          1           0       -3.957581    1.718974   -1.582740
     54          6           0       -4.443641    0.634119   -3.398580
     55          1           0       -4.969119    1.483123   -3.848042
     56          6           0       -4.340751   -0.579644   -4.093927
     57          1           0       -4.786209   -0.682544   -5.088789
     58          6           0       -3.659646   -1.663041   -3.511672
     59          1           0       -3.572833   -2.612578   -4.049929
     60          6           0       -3.080346   -1.529824   -2.242335
     61          1           0       -2.539724   -2.372286   -1.798188
     62          6           0       -3.393730   -1.371021    1.155609
     63          6           0       -4.731233   -1.666383    0.811300
     64          1           0       -5.174645   -1.226372   -0.087319
     65          6           0       -5.493159   -2.536222    1.607743
     66          1           0       -6.527927   -2.759310    1.327438
     67          6           0       -4.929564   -3.121958    2.752383
     68          1           0       -5.523508   -3.803708    3.369798
     69          6           0       -3.597879   -2.839040    3.095666
     70          1           0       -3.146795   -3.300356    3.980123
     71          6           0       -2.831844   -1.972757    2.300325
     72          1           0       -1.789382   -1.775325    2.563579
 ---------------------------------------------------------------------
 Rotational constants (GHZ):      0.0905218      0.0519609      0.0491403
 Leave Link  202 at Fri Apr  3 23:10:36 2020, MaxMem=  1879048192 cpu:         0.0
 (Enter /home/programs/G09_D/g09/l301.exe)
 General basis read from cards:  (5D, 7F)
 Centers:       1
 SDDAll
 *****
 Centers:       2
 SDDAll
 *****
 Centers:       3      4
 SDDALL
 D 1 1.
     Exponent=  3.8700000000D-01 Coefficients=  1.0000000000D+00
 *****
 Centers:       7      8      9     10     11     13     15     17     19     20
 Centers:      22     24     26     28     29     30     32     34     36     38
 Centers:      40     41     43     45     47     49     51     52     54     56
 Centers:      58     60     62     63     65     67     69     71     12     14
 Centers:      16     18     21     23     25     27     31     33     35     37
 Centers:      39     42     44     46     48     50     53     55     57     59
 Centers:      61     64     66     68     70     72      5      6
 6-31g**
 *****
 ======================================================================================================
                                       Pseudopotential Parameters
 ======================================================================================================
  Center     Atomic      Valence      Angular      Power
  Number     Number     Electrons     Momentum     of R      Exponent        Coefficient   SO-Coeffient
 ======================================================================================================
    1         44           16
                                      G and up 
                                                     2        1.0000000        0.00000000    0.00000000
                                      S - G
                                                     2       11.1052690      209.82297100    0.00000000
                                                     2        5.4147450       30.65472600    0.00000000
                                      P - G
                                                     2        9.7712710      146.33618200    0.00000000
                                                     2        5.0739910       24.12787700    0.00000000
                                      D - G
                                                     2        7.6714230       67.51589700    0.00000000
                                                     2        4.1365650        9.87010400    0.00000000
                                      F - G
                                                     2       11.3600000      -28.34061600    0.00000000
                                                     2        5.6800000       -4.94462900    0.00000000
    2         30           20
                                      F and up 
                                                     2        1.0000000        0.00000000    0.00000000
                                      S - F
                                                     2       34.1500000      399.98728200    0.00000000
                                                     2       14.5900000       85.48565500    0.00000000
                                      P - F
                                                     2       39.7800000      277.14896000    0.00000000
                                                     2       14.9500000       69.05220500    0.00000000
                                      D - F
                                                     2       43.8000000      -34.14934900    0.00000000
                                                     2       14.9800000       -3.29183100    0.00000000
    3         15            5
                                      F and up 
                                                     2        1.0000000        0.00000000    0.00000000
                                      S - F
                                                     2        2.9405599       26.53226131    0.00000000
                                      P - F
                                                     2        2.2277126       11.49721021    0.00000000
                                      D - F
                                                     2        5.6617060      -16.77278000    0.00000000
    4         15            5
                                      F and up 
                                                     2        1.0000000        0.00000000    0.00000000
                                      S - F
                                                     2        2.9405599       26.53226131    0.00000000
                                      P - F
                                                     2        2.2277126       11.49721021    0.00000000
                                      D - F
                                                     2        5.6617060      -16.77278000    0.00000000
    5          8
                                   No pseudopotential on this center.
    6          8
                                   No pseudopotential on this center.
    7          6
                                   No pseudopotential on this center.
    8          6
                                   No pseudopotential on this center.
    9          6
                                   No pseudopotential on this center.
   10          6
                                   No pseudopotential on this center.
   11          6
                                   No pseudopotential on this center.
   12          1
                                   No pseudopotential on this center.
   13          6
                                   No pseudopotential on this center.
   14          1
                                   No pseudopotential on this center.
   15          6
                                   No pseudopotential on this center.
   16          1
                                   No pseudopotential on this center.
   17          6
                                   No pseudopotential on this center.
   18          1
                                   No pseudopotential on this center.
   19          6
                                   No pseudopotential on this center.
   20          6
                                   No pseudopotential on this center.
   21          1
                                   No pseudopotential on this center.
   22          6
                                   No pseudopotential on this center.
   23          1
                                   No pseudopotential on this center.
   24          6
                                   No pseudopotential on this center.
   25          1
                                   No pseudopotential on this center.
   26          6
                                   No pseudopotential on this center.
   27          1
                                   No pseudopotential on this center.
   28          6
                                   No pseudopotential on this center.
   29          6
                                   No pseudopotential on this center.
   30          6
                                   No pseudopotential on this center.
   31          1
                                   No pseudopotential on this center.
   32          6
                                   No pseudopotential on this center.
   33          1
                                   No pseudopotential on this center.
   34          6
                                   No pseudopotential on this center.
   35          1
                                   No pseudopotential on this center.
   36          6
                                   No pseudopotential on this center.
   37          1
                                   No pseudopotential on this center.
   38          6
                                   No pseudopotential on this center.
   39          1
                                   No pseudopotential on this center.
   40          6
                                   No pseudopotential on this center.
   41          6
                                   No pseudopotential on this center.
   42          1
                                   No pseudopotential on this center.
   43          6
                                   No pseudopotential on this center.
   44          1
                                   No pseudopotential on this center.
   45          6
                                   No pseudopotential on this center.
   46          1
                                   No pseudopotential on this center.
   47          6
                                   No pseudopotential on this center.
   48          1
                                   No pseudopotential on this center.
   49          6
                                   No pseudopotential on this center.
   50          1
                                   No pseudopotential on this center.
   51          6
                                   No pseudopotential on this center.
   52          6
                                   No pseudopotential on this center.
   53          1
                                   No pseudopotential on this center.
   54          6
                                   No pseudopotential on this center.
   55          1
                                   No pseudopotential on this center.
   56          6
                                   No pseudopotential on this center.
   57          1
                                   No pseudopotential on this center.
   58          6
                                   No pseudopotential on this center.
   59          1
                                   No pseudopotential on this center.
   60          6
                                   No pseudopotential on this center.
   61          1
                                   No pseudopotential on this center.
   62          6
                                   No pseudopotential on this center.
   63          6
                                   No pseudopotential on this center.
   64          1
                                   No pseudopotential on this center.
   65          6
                                   No pseudopotential on this center.
   66          1
                                   No pseudopotential on this center.
   67          6
                                   No pseudopotential on this center.
   68          1
                                   No pseudopotential on this center.
   69          6
                                   No pseudopotential on this center.
   70          1
                                   No pseudopotential on this center.
   71          6
                                   No pseudopotential on this center.
   72          1
                                   No pseudopotential on this center.
 ======================================================================================================
 Ernie: Thresh=  0.10000D-02 Tol=  0.10000D-05 Strict=F.
 There are   846 symmetry adapted cartesian basis functions of A   symmetry.
 There are   798 symmetry adapted basis functions of A   symmetry.
   798 basis functions,  1490 primitive gaussians,   846 cartesian basis functions
   159 alpha electrons      159 beta electrons
       nuclear repulsion energy      5436.9221063078 Hartrees.
 IExCor=  404 DFT=T Ex=B Corr=P86 ExCW=0 ScaHFX=  0.000000
 ScaDFX=  1.000000  1.000000  1.000000  1.000000 ScalE2=  1.000000  1.000000
 IRadAn=      5 IRanWt=     -1 IRanGd=            0 ICorTp=0 IEmpDi=  4
 NAtoms=   72 NActive=   72 NUniq=   72 SFac= 1.00D+00 NAtFMM=   60 NAOKFM=T Big=T
 Integral buffers will be    131072 words long.
 Raffenetti 2 integral format.
 Two-electron integral symmetry is turned on.
 Leave Link  301 at Fri Apr  3 23:10:36 2020, MaxMem=  1879048192 cpu:         0.6
 (Enter /home/programs/G09_D/g09/l302.exe)
 NPDir=0 NMtPBC=     1 NCelOv=     1 NCel=       1 NClECP=     1 NCelD=      1
         NCelK=      1 NCelE2=     1 NClLst=     1 CellRange=     0.0.
 One-electron integrals computed using PRISM.
   1 Symmetry operations used in ECPInt.
 ECPInt:  NShTT=   39903 NPrTT=  205958 LenC2=   29130 LenP2D=   82720.
 LDataN:  DoStor=T MaxTD1= 6 Len=  172
 NBasis=   798 RedAO= T EigKep=  4.54D-04  NBF=   798
 NBsUse=   798 1.00D-06 EigRej= -1.00D+00 NBFU=   798
 Precomputing XC quadrature grid using
 IXCGrd= 4 IRadAn=           5 IRanWt=          -1 IRanGd=           0 AccXCQ= 0.00D+00.
 Defaulting to unpruned grid for atomic number  44.
 Generated NRdTot=       0 NPtTot=           0 NUsed=           0 NTot=          32
 NSgBfM=   796   796   796   801   801 MxSgAt=    72 MxSgA2=    72.
 Leave Link  302 at Fri Apr  3 23:10:41 2020, MaxMem=  1879048192 cpu:        31.5
 (Enter /home/programs/G09_D/g09/l303.exe)
 DipDrv:  MaxL=1.
 Leave Link  303 at Fri Apr  3 23:10:41 2020, MaxMem=  1879048192 cpu:         1.2
 (Enter /home/programs/G09_D/g09/l401.exe)
 ExpMin= 1.00D-02 ExpMax= 5.48D+03 ExpMxC= 8.25D+02 IAcc=3 IRadAn=         5 AccDes= 0.00D+00
 Harris functional with IExCor=  404 and IRadAn=       5 diagonalized for initial guess.
 HarFok:  IExCor=  404 AccDes= 0.00D+00 IRadAn=         5 IDoV= 1 UseB2=F ITyADJ=14
 ICtDFT=  3500011 ScaDFX=  1.000000  1.000000  1.000000  1.000000
 Defaulting to unpruned grid for atomic number  44.
 Defaulting to unpruned grid for atomic number  44.
 Defaulting to unpruned grid for atomic number  44.
 Defaulting to unpruned grid for atomic number  44.
 Defaulting to unpruned grid for atomic number  44.
 Defaulting to unpruned grid for atomic number  44.
 Defaulting to unpruned grid for atomic number  44.
 Defaulting to unpruned grid for atomic number  44.
 FoFCou: FMM=F IPFlag=           0 FMFlag=      100000 FMFlg1=        2001
         NFxFlg=           0 DoJE=T BraDBF=F KetDBF=T FulRan=T
         wScrn=  0.000000 ICntrl=     500 IOpCl=  0 I1Cent=   200000004 NGrid=           0
         NMat0=    1 NMatS0=      1 NMatT0=    0 NMatD0=    1 NMtDS0=    0 NMtDT0=    0
 Petite list used in FoFCou.
 Harris En= -1951.40401472750    
 JPrj=0 DoOrth=F DoCkMO=F.
 Leave Link  401 at Fri Apr  3 23:10:56 2020, MaxMem=  1879048192 cpu:       110.7
 (Enter /home/programs/G09_D/g09/l502.exe)
 Closed shell SCF:
 Using DIIS extrapolation, IDIIS=  1040.
 Integral symmetry usage will be decided dynamically.
 IVT=     2178766 IEndB=     2178766 NGot=  1879048192 MDV=  1877602629
 LenX=  1877602629 LenY=  1876886067
 Requested convergence on RMS density matrix=1.00D-08 within 128 cycles.
 Requested convergence on MAX density matrix=1.00D-06.
 Requested convergence on             energy=1.00D-06.
 No special actions if energy rises.
 Fock matrices will be formed incrementally for  20 cycles.

 Cycle   1  Pass 1  IDiag  1:
 FoFJK:  IHMeth= 1 ICntrl=     500 DoSepK=F KAlg= 0 I1Cent=   0 FoldK=F
 IRaf= 800000000 NMat=   1 IRICut=       1 DoRegI=T DoRafI=F ISym2E= 0.
 FoFCou: FMM=T IPFlag=           0 FMFlag=      100000 FMFlg1=        2001
         NFxFlg=           0 DoJE=T BraDBF=F KetDBF=F FulRan=T
         wScrn=  0.000000 ICntrl=     500 IOpCl=  0 I1Cent=           0 NGrid=           0
         NMat0=    1 NMatS0=      1 NMatT0=    0 NMatD0=    1 NMtDS0=    0 NMtDT0=    0
 Symmetry not used in FoFCou.
 FMM levels:  10  Number of levels for PrismC:   9
 Defaulting to unpruned grid for atomic number  44.
 Defaulting to unpruned grid for atomic number  44.
 Defaulting to unpruned grid for atomic number  44.
 Defaulting to unpruned grid for atomic number  44.
 Defaulting to unpruned grid for atomic number  44.
 Defaulting to unpruned grid for atomic number  44.
 Defaulting to unpruned grid for atomic number  44.
 Defaulting to unpruned grid for atomic number  44.
 E= -1949.30583469914    
 DIIS: error= 6.91D-02 at cycle   1 NSaved=   1.
 NSaved= 1 IEnMin= 1 EnMin= -1949.30583469914     IErMin= 1 ErrMin= 6.91D-02
 ErrMax= 6.91D-02  0.00D+00 EMaxC= 1.00D-01 BMatC= 1.72D+00 BMatP= 1.72D+00
 IDIUse=3 WtCom= 3.09D-01 WtEn= 6.91D-01
 Coeff-Com:  0.100D+01
 Coeff-En:   0.100D+01
 Coeff:      0.100D+01
 Gap=     0.179 Goal=   None    Shift=    0.000
 GapD=    0.179 DampG=1.000 DampE=0.250 DampFc=0.2500 IDamp=-1.
 Damping current iteration by 2.50D-01
 RMSDP=6.38D-03 MaxDP=1.80D+00              OVMax= 6.51D-01

 Cycle   2  Pass 1  IDiag  1:
 RMSU=  1.59D-03    CP:  9.91D-01
 E= -1949.56404276259     Delta-E=       -0.258208063447 Rises=F Damp=T
 DIIS: error= 1.13D-02 at cycle   2 NSaved=   2.
 NSaved= 2 IEnMin= 2 EnMin= -1949.56404276259     IErMin= 2 ErrMin= 1.13D-02
 ErrMax= 1.13D-02  0.00D+00 EMaxC= 1.00D-01 BMatC= 2.30D-01 BMatP= 1.72D+00
 IDIUse=3 WtCom= 8.87D-01 WtEn= 1.13D-01
 Coeff-Com:  0.504D-01 0.950D+00
 Coeff-En:   0.404D+00 0.596D+00
 Coeff:      0.902D-01 0.910D+00
 Gap=    -0.046 Goal=   None    Shift=    0.000
 RMSDP=3.25D-03 MaxDP=5.38D-01 DE=-2.58D-01 OVMax= 9.79D-01

 Cycle   3  Pass 1  IDiag  1:
 RMSU=  3.15D-03    CP:  9.65D-01  5.41D-01
 E= -1944.68138137590     Delta-E=        4.882661386683 Rises=F Damp=F
 DIIS: error= 9.04D-02 at cycle   3 NSaved=   3.
 NSaved= 3 IEnMin= 2 EnMin= -1949.56404276259     IErMin= 2 ErrMin= 1.13D-02
 ErrMax= 9.04D-02  0.00D+00 EMaxC= 1.00D-01 BMatC= 3.78D+00 BMatP= 2.30D-01
 IDIUse=2 WtCom= 0.00D+00 WtEn= 1.00D+00
 EnCoef did    14 forward-backward iterations
 Coeff-En:   0.274D+00 0.648D+00 0.778D-01
 Coeff:      0.274D+00 0.648D+00 0.778D-01
 Gap=     0.000 Goal=   None    Shift=    0.000
 RMSDP=3.13D-03 MaxDP=6.81D-01 DE= 4.88D+00 OVMax= 4.72D-01

 Cycle   4  Pass 1  IDiag  1:
 RMSU=  1.89D-03    CP:  9.73D-01  1.22D+00  2.90D-01
 E= -1948.99464546798     Delta-E=       -4.313264092073 Rises=F Damp=F
 DIIS: error= 6.29D-02 at cycle   4 NSaved=   4.
 NSaved= 4 IEnMin= 2 EnMin= -1949.56404276259     IErMin= 2 ErrMin= 1.13D-02
 ErrMax= 6.29D-02  0.00D+00 EMaxC= 1.00D-01 BMatC= 1.92D+00 BMatP= 2.30D-01
 IDIUse=2 WtCom= 0.00D+00 WtEn= 1.00D+00
 EnCoef did   100 forward-backward iterations
 Coeff-En:   0.528D+00 0.102D-01 0.949D-04 0.462D+00
 Coeff:      0.528D+00 0.102D-01 0.949D-04 0.462D+00
 Gap=     0.091 Goal=   None    Shift=    0.000
 RMSDP=2.30D-03 MaxDP=5.06D-01 DE=-4.31D+00 OVMax= 4.86D-01

 Cycle   5  Pass 1  IDiag  1:
 RMSU=  1.57D-03    CP:  9.82D-01  5.40D-01  2.37D-01  3.32D-01
 E= -1949.83429745711     Delta-E=       -0.839651989129 Rises=F Damp=F
 DIIS: error= 6.09D-02 at cycle   5 NSaved=   5.
 NSaved= 5 IEnMin= 5 EnMin= -1949.83429745711     IErMin= 2 ErrMin= 1.13D-02
 ErrMax= 6.09D-02  0.00D+00 EMaxC= 1.00D-01 BMatC= 1.12D+00 BMatP= 2.30D-01
 IDIUse=2 WtCom= 0.00D+00 WtEn= 1.00D+00
 EnCoef did    11 forward-backward iterations
 Coeff-En:   0.202D+00 0.000D+00 0.000D+00 0.390D+00 0.407D+00
 Coeff:      0.202D+00 0.000D+00 0.000D+00 0.390D+00 0.407D+00
 Gap=     0.035 Goal=   None    Shift=    0.000
 RMSDP=1.81D-03 MaxDP=2.68D-01 DE=-8.40D-01 OVMax= 4.22D-01

 Cycle   6  Pass 1  IDiag  1:
 RMSU=  7.00D-04    CP:  9.85D-01  4.92D-01  1.67D-01  5.04D-01 -2.98D-02
 E= -1950.59108245732     Delta-E=       -0.756785000218 Rises=F Damp=F
 DIIS: error= 1.25D-02 at cycle   6 NSaved=   6.
 NSaved= 6 IEnMin= 6 EnMin= -1950.59108245732     IErMin= 2 ErrMin= 1.13D-02
 ErrMax= 1.25D-02  0.00D+00 EMaxC= 1.00D-01 BMatC= 2.43D-01 BMatP= 2.30D-01
 IDIUse=3 WtCom= 8.75D-01 WtEn= 1.25D-01
 Coeff-Com: -0.267D-01 0.180D+00 0.262D-01 0.975D-01 0.271D+00 0.451D+00
 Coeff-En:   0.000D+00 0.000D+00 0.000D+00 0.000D+00 0.273D+00 0.727D+00
 Coeff:     -0.233D-01 0.158D+00 0.229D-01 0.853D-01 0.271D+00 0.486D+00
 Gap=     0.026 Goal=   None    Shift=    0.000
 RMSDP=1.07D-03 MaxDP=8.77D-02 DE=-7.57D-01 OVMax= 3.95D-01

 Cycle   7  Pass 1  IDiag  1:
 RMSU=  5.17D-04    CP:  9.83D-01  5.68D-01  2.04D-01  5.74D-01  3.70D-01
                    CP:  6.44D-02
 E= -1950.75484410410     Delta-E=       -0.163761646775 Rises=F Damp=F
 DIIS: error= 5.26D-03 at cycle   7 NSaved=   7.
 NSaved= 7 IEnMin= 7 EnMin= -1950.75484410410     IErMin= 7 ErrMin= 5.26D-03
 ErrMax= 5.26D-03  0.00D+00 EMaxC= 1.00D-01 BMatC= 7.56D-02 BMatP= 2.30D-01
 IDIUse=3 WtCom= 9.47D-01 WtEn= 5.26D-02
 EnCoef did     6 forward-backward iterations
 Coeff-Com: -0.886D-01 0.134D+00 0.152D-01-0.133D-01 0.180D+00 0.418D+00
 Coeff-Com:  0.354D+00
 Coeff-En:   0.000D+00 0.000D+00 0.000D+00 0.000D+00 0.214D-01 0.296D+00
 Coeff-En:   0.683D+00
 Coeff:     -0.839D-01 0.127D+00 0.144D-01-0.126D-01 0.172D+00 0.412D+00
 Coeff:      0.371D+00
 Gap=     0.029 Goal=   None    Shift=    0.000
 RMSDP=6.46D-04 MaxDP=9.79D-02 DE=-1.64D-01 OVMax= 3.07D-01

 Cycle   8  Pass 1  IDiag  1:
 RMSU=  2.55D-04    CP:  9.84D-01  5.38D-01  1.88D-01  5.07D-01  2.62D-01
                    CP:  5.32D-01  1.46D-01
 E= -1950.82152303796     Delta-E=       -0.066678933858 Rises=F Damp=F
 DIIS: error= 2.55D-03 at cycle   8 NSaved=   8.
 NSaved= 8 IEnMin= 8 EnMin= -1950.82152303796     IErMin= 8 ErrMin= 2.55D-03
 ErrMax= 2.55D-03  0.00D+00 EMaxC= 1.00D-01 BMatC= 1.42D-02 BMatP= 7.56D-02
 IDIUse=3 WtCom= 9.75D-01 WtEn= 2.55D-02
 Coeff-Com: -0.538D-01 0.768D-01 0.223D-02-0.224D-01 0.907D-01 0.233D+00
 Coeff-Com:  0.289D+00 0.384D+00
 Coeff-En:   0.000D+00 0.000D+00 0.000D+00 0.000D+00 0.000D+00 0.000D+00
 Coeff-En:   0.233D+00 0.767D+00
 Coeff:     -0.524D-01 0.749D-01 0.217D-02-0.218D-01 0.884D-01 0.227D+00
[...]
 9,-0.00000166,-0.00000210,0.00000119,0.00000002,-0.00002236,-0.0000614
 5,0.00004571,0.00002867,-0.00001649,0.00001062,0.00000106,-0.00001498,
 0.00000219,0.00000038,-0.00000989,0.00000335,0.00000069,-0.00000667,0.
 00000178,0.00000854,-0.00000290,-0.00000913,-0.00000709,-0.00000588,0.
 00000106,0.00002284,-0.00001273,0.00000862,0.00002234,0.00001836,-0.00
 000542,0.00012158,-0.00000896,-0.00011572,0.00003859,-0.00000427,-0.00
 001960,0.00000180,0.00003624,0.00000985,-0.00000201,0.00000515,-0.0000
 0695,-0.00000632,0.00000495,0.00001059,-0.00000040,0.00000352,0.000004
 14,0.00000285,-0.00001070,0.00003337,0.00000604,-0.00000092,0.00000227
 ,-0.00002279,-0.00002454,-0.00001714,0.00002684,0.00002046,0.00002199,
 0.00000308,-0.00001734,0.00002973,0.00001159,-0.00000510,-0.00003654,0
 .00003529,-0.00001087,0.00002906,0.00000110,0.00001376,-0.00001425,0.0
 0000520,-0.00000407,-0.00000154,0.00000352,0.00000581,0.00000575,0.000
 00442,0.00000081,-0.00000133,0.00000249,0.00000270,0.00000023,0.000002
 06,-0.00000009,-0.00000117,0.00000228,-0.00000114,0.00000402,-0.000000
 30,-0.00000146,-0.00000113,-0.00000854,-0.00000072,-0.00000117,-0.0000
 0157,-0.00000377,0.00000421,0.00024098,-0.00020978,-0.00018122,0.00000
 502,0.00006012,-0.00007177,0.00000852,-0.00000879,-0.00000833,-0.00002
 695,0.00001375,0.00002952,-0.00000952,-0.00000332,-0.00000922,0.000006
 89,0.00001585,-0.00001661,0.00000159,-0.00000235,-0.00000900,-0.000041
 50,0.00000741,-0.00000642,-0.00000724,0.00000794,-0.00001038,-0.000055
 40,-0.00005323,0.00001003,0.00001298,-0.00000776,-0.00000450,0.0015271
 7,-0.00474522,0.00014393,0.00071108,0.00009026,0.00021011,0.00016578,0
 .00046435,-0.00031656,-0.00163313,-0.00141171,0.00286175,0.00000351,-0
 .00025274,-0.00007405,-0.00019897,-0.00190220,-0.00121972,0.00060897,0
 .00164124,-0.00019117,-0.11387446,-0.06343257,-0.23595496,0.12373610,0
 .07130398,0.24791422,-0.00219126,0.00012496,0.00146590,0.00014305,0.00
 008750,0.00006614,0.00027500,0.00011489,0.00040288,0.00966575,-0.00013
 712,0.00738974,-0.00044336,-0.00062243,0.00025867,-0.00005430,-0.00025
 959,-0.00016941,0.00080886,0.00093172,-0.00010691,0.00020438,0.0008483
 6,0.00020327,-0.00004680,-0.00005590,-0.00000114,-0.00014234,-0.000000
 55,-0.00008972,-0.00000608,0.00002535,-0.00000327,-0.00000652,-0.00000
 277,0.00000082,-0.00001073,0.00000774,0.00001598,-0.00000210,0.0000035
 7,0.00000439,-0.00001086,-0.00000343,0.00000140,0.00000051,0.00000080,
 0.00000381,0.00000886,-0.00000761,-0.00001939,0.00000683,-0.00000115,0
 .00000460,0.00014103,0.00033159,-0.00028411,-0.00030484,0.00008863,-0.
 00014147,0.00000544,0.00008959,-0.00000141,0.00004732,0.00006203,-0.00
 002500,-0.00000452,0.00002356,0.00001640,-0.00003350,-0.00000140,-0.00
 002744,0.00002981,0.00003985,-0.00001639,-0.00001971,0.00011443,-0.000
 02650,-0.00013034,-0.00005224,0.00004575,-0.00060447,0.00020559,0.0010
 5395,-0.00009963,0.00008067,0.00006821,-0.00001777,-0.00005376,-0.0000
 1817,-0.00000480,-0.00001406,0.00002922,0.00002150,0.00000871,-0.00005
 648,-0.00000455,-0.00000471,-0.00001086,-0.00001517,0.00005367,-0.0001
 1173,-0.00001714,-0.00000784,0.00000163,0.00009811,-0.00004736,-0.0000
 7266,-0.00004308,-0.00003776,-0.00002556,0.00004477,0.00003069,-0.0000
 7271,-0.00006230,-0.00006497,0.00008991,-0.00012209,0.00002215,-0.0001
 0149,-0.00000140,-0.00003730,0.00003736,-0.00002319,0.00000411,-0.0000
 0003,-0.00001509,-0.00000643,-0.00002124,-0.00000671,-0.00000306,0.000
 00229,-0.00000064,0.00000125,-0.00000110,-0.00000090,0.00000059,-0.000
 00112,-0.00000559,0.00000746,-0.00000652,0.00000415,0.00000512,-0.0000
 0393,0.00004080,0.00001000,-0.00000129,0.00000023,0.00000300,-0.000000
 57,-0.00172085,0.00330059,0.00227161,0.00006271,-0.00055592,0.00060069
 ,-0.00012333,0.00014391,0.00008522,0.00046019,-0.00019964,-0.00001835,
 0.00010122,0.00001307,0.00008177,0.00014418,0.00012864,0.00017171,-0.0
 0001842,0.00002505,0.00005793,0.00015091,-0.00013990,-0.00019940,0.000
 00327,-0.00003624,0.00008306,0.00034546,0.00020437,0.00012291,-0.00010
 114,-0.00000084,-0.00002203,-0.14814510,-0.01903411,-0.10793827,-0.023
 52082,-0.00039973,-0.02722673,-0.00376918,0.00405679,-0.00112453,-0.00
 151736,-0.00263817,-0.00054574,0.00041559,-0.00053862,0.00025362,-0.01
 877453,0.02242150,0.01720336,-0.00355372,0.00380371,-0.00239723,-0.145
 37237,0.08883502,0.07529897,0.00901202,-0.00995923,-0.01119003,0.60512
 517,0.00017403,0.00045854,0.00026044,-0.00012839,-0.00026555,0.0000661
 3,-0.00005603,-0.00007822,-0.00014964,-0.00441709,-0.00569822,-0.01402
 396,0.00008700,0.00093435,-0.00008966,0.00002895,-0.00001838,0.0003324
 9,-0.00041373,-0.00129710,0.00021719,-0.00006106,0.00010283,-0.0004992
 3,0.00003582,0.00011752,-0.00004010,0.00008274,0.00001384,0.00004039,0
 .00001003,-0.00001642,0.00000035,0.00000352,0.00000020,-0.00000027,0.0
 0000390,0.00000467,-0.00000774,0.00000024,-0.00000173,-0.00000179,0.00
 000345,0.00000859,0.00001078,-0.00000499,0.00000139,-0.00000010,-0.000
 03948,-0.00000944,0.00001266,-0.00000474,0.00000360,-0.00000494,-0.000
 15332,-0.00004565,-0.00005037,-0.00000360,-0.00011408,0.00012404,0.000
 02444,-0.00002158,0.00003532,0.00016061,-0.00005888,-0.00004160,0.0000
 0021,0.00000306,-0.00000489,-0.00005289,0.00021800,-0.00009629,-0.0000
 1179,-0.00000693,-0.00000575,0.00014716,-0.00027347,-0.00004385,-0.000
 13530,-0.00005936,0.00003381,0.00033671,0.00007664,-0.00076504,0.00007
 713,-0.00004497,-0.00003797,0.00001611,0.00005583,0.00000846,-0.000001
 83,0.00000910,-0.00001061,-0.00000792,0.00001103,0.00002476,-0.0000049
 9,0.00000615,0.00000575,0.00001253,-0.00003782,0.00005746,0.00000648,0
 .00000236,-0.00000337,-0.00005299,0.00000806,0.00002158,0.00003486,0.0
 0002806,0.00002515,-0.00003649,-0.00004733,0.00006290,0.00005473,0.000
 03739,-0.00007077,0.00003965,-0.00001319,0.00004164,-0.00000115,0.0000
 2008,-0.00001097,0.00001149,-0.00000357,-0.00000135,0.00000708,0.00000
 478,0.00001092,0.00000344,-0.00000017,-0.00000182,-0.00000142,0.000001
 47,-0.00000027,0.00000064,-0.00000130,0.00000003,0.00000729,-0.0000040
 8,0.00000153,-0.00000244,-0.00000167,0.00000248,-0.00002394,0.00000063
 ,-0.00000038,-0.00000058,-0.00000309,0.00000309,0.00201304,-0.00158340
 ,-0.00130951,-0.00029061,0.00030311,-0.00059103,0.00009035,-0.00008262
 ,-0.00006488,-0.00022875,0.00004451,0.00031243,-0.00002927,-0.00002877
 ,-0.00006952,0.00012510,0.00017747,-0.00015246,0.00003598,-0.00001419,
 -0.00004577,-0.00037961,0.00014004,-0.00018226,-0.00005839,0.00004038,
 -0.00004717,-0.00040023,-0.00021000,0.00011552,0.00018143,-0.00002903,
 -0.00014131,-0.00187689,-0.08432541,-0.04994982,-0.01606260,0.02186768
 ,0.01316699,0.00457484,0.00322270,-0.00152632,-0.00237599,-0.01764848,
 -0.02106103,-0.00046633,-0.00065434,-0.00030878,0.04099238,-0.00930875
 ,0.00824964,0.00332954,0.00421813,-0.00147836,0.06114672,-0.15642677,-
 0.12053978,0.00391848,-0.00172338,-0.00350567,-0.18040049,0.32050318,-
 0.00015966,-0.00028237,-0.00002648,-0.00005469,0.00036277,-0.00012244,
 -0.00037463,-0.00006429,-0.00026683,0.00080227,-0.00982288,-0.01676671
 ,-0.00022483,0.00006992,0.00011160,0.00004270,-0.00002771,-0.00022828,
 0.00083891,0.00026461,-0.00061035,-0.00006266,0.00012231,0.00060520,-0
 .00004458,-0.00010207,0.00003922,0.00005778,-0.00003056,0.00000679,-0.
 00000598,-0.00001662,0.00000882,0.00000352,0.00000258,-0.00000140,0.00
 000917,-0.00000531,-0.00000457,0.00000397,-0.00000167,-0.00000365,-0.0
 0000178,-0.00000843,-0.00000978,0.00000781,-0.00000476,-0.00000443,0.0
 0006335,0.00001202,-0.00001047,0.00000089,0.00000325,0.00000234,0.0000
 8973,-0.00049966,0.00004329,-0.00022155,0.00015237,0.00008881,-0.00000
 004,0.00002671,-0.00000854,-0.00001067,0.00001035,-0.00006757,-0.00007
 857,0.00000817,-0.00003737,-0.00028088,0.00007596,0.00036113,0.0000191
 1,-0.00000351,0.00002261,0.00039754,0.00010075,0.00006616,-0.00073493,
 -0.00004765,-0.00002537,-0.00023117,0.00167231,-0.00039675,-0.00002298
 ,0.00004285,-0.00000100,-0.00000851,0.00002716,-0.00001243,-0.00000527
 ,0.00000291,-0.00000860,-0.00000209,0.00000009,0.00001074,0.00000448,-
 0.00000057,0.00000290,-0.00000745,-0.00000329,0.00001768,0.00001328,-0
 .00000012,0.00000784,-0.00002837,-0.00002015,0.00000537,0.00001768,0.0
 0001923,0.00000877,0.00001472,-0.00000621,-0.00000949,-0.00000718,-0.0
 0000661,-0.00001248,0.00004600,-0.00000873,0.00003694,-0.00000147,0.00
 000641,-0.00002857,0.00000445,-0.00000269,-0.00000104,0.00000638,0.000
 00826,0.00000106,0.00000468,0.00000371,-0.00000069,0.00000677,0.000001
 12,0.00000503,0.00000302,0.00000179,-0.00000105,0.00000295,-0.00000322
 ,0.00000776,-0.00000011,-0.00000183,-0.00000265,-0.00000221,-0.0000049
 4,0.00000124,-0.00000672,-0.00000765,0.00001018,0.00088085,-0.00231911
 ,-0.00057568,-0.00023630,0.00037039,-0.00069530,0.00008541,-0.00009069
 ,-0.00007178,-0.00023801,-0.00002118,0.00011697,-0.00005751,0.00000857
 ,-0.00005562,0.00000298,-0.00002339,-0.00005792,0.00002077,-0.00000648
 ,-0.00001784,-0.00011246,0.00012169,0.00001914,-0.00000507,0.00000919,
 -0.00003314,-0.00025881,-0.00015028,0.00009147,0.00015015,0.00006179,-
 0.00005119,-0.07800174,-0.06410621,-0.23114225,-0.05431189,0.02642283,
 0.00769456,-0.00074281,-0.00192071,0.00241559,-0.00048034,-0.02220271,
 -0.04368202,0.00022404,-0.00026860,-0.00111120,0.04953023,-0.00737501,
 0.03495289,-0.00318361,-0.00110908,0.00230325,0.02895393,-0.09759726,-
 0.19811427,0.01208230,-0.01516715,-0.01297414,0.08915586,0.18611889,0.
 51446533,0.00039124,-0.00015975,-0.00078432,0.00009711,0.00010673,-0.0
 0009177,0.00003246,-0.00001857,0.00004112,-0.00100943,0.00001513,0.000
 76336,0.00018072,0.00021169,-0.00012865,-0.00002906,0.00003431,-0.0000
 5073,-0.00065074,-0.00022898,0.00066947,0.00001155,-0.00013969,0.00015
 541,0.00000359,-0.00005104,0.00001907,0.00000883,0.00000583,0.00000405
 ,-0.00001372,-0.00000512,0.00000100,-0.00000087,-0.00000029,0.00000289
 ,-0.00000147,-0.00000710,-0.00000288,0.00000026,-0.00000105,0.00000012
 ,0.00000566,-0.00000253,-0.00000604,0.00000060,-0.00000045,-0.00000213
 ,0.00001061,0.00000382,0.00000775,0.00000093,-0.00000354,0.00000065,-0
 .00001642,-0.00007250,0.00007031,0.00008831,-0.00002726,0.00003839,-0.
 00000964,-0.00001174,0.00000236,-0.00000674,-0.00001070,0.00000373,-0.
 00000099,-0.00000328,-0.00000780,-0.00000711,-0.00001764,0.00003336,-0
 .00000632,-0.00000403,-0.00000720,-0.00010946,0.00000333,0.00008640,-0
 .00000178,0.00004029,-0.00003236,0.00028106,-0.00018524,-0.00011380,0.
 00000371,0.00000437,0.00002044,-0.00000589,-0.00000631,0.00001378,0.00
 000332,-0.00000265,-0.00000233,-0.00000733,-0.00001355,0.00000206,0.00
 000672,-0.00000307,0.00000089,-0.00001178,0.00000573,-0.00000722,0.000
 00697,-0.00000002,0.00000594,-0.00000725,-0.00001222,-0.00003368,-0.00
 000157,0.00000121,-0.00000184,0.00006004,0.00000193,-0.00001787,-0.000
 04499,-0.00002792,0.00002204,0.00000126,-0.00000174,-0.00000304,-0.000
 00111,-0.00000137,-0.00000146,-0.00000250,0.00000136,0.00000215,-0.000
 00170,-0.00000049,0.00000075,0.00000047,-0.00000051,-0.00000016,-0.000
 00123,-0.00000042,-0.00000133,-0.00000031,0.00000021,-0.00000022,-0.00
 000147,0.00000437,-0.00000145,0.00000053,-0.00000010,0.00000015,0.0000
 0046,-0.00000263,0.00000110,0.00000387,-0.00000235,-0.00000667,-0.0000
 3146,0.00015925,-0.00020568,0.00009194,0.00000222,0.00011973,-0.000019
 25,-0.00000379,-0.00000399,0.00002785,0.00002538,-0.00001340,0.0000029
 9,-0.00000206,0.00000978,0.00000215,0.00000531,0.00000292,0.00000030,-
 0.00000275,0.00000125,-0.00002297,-0.00002316,0.00001758,0.00000127,0.
 00000049,0.00000637,0.00004412,-0.00001861,0.00001743,-0.00001474,-0.0
 0000939,-0.00001020,-0.01027075,0.00404668,-0.00218922,0.00125969,0.00
 028155,-0.00327145,-0.00037963,0.00053292,-0.00003308,0.00043084,-0.00
 043905,0.00026486,-0.00024763,-0.00031206,0.00019978,0.00190623,0.0029
 7350,0.00118287,-0.00050643,0.00006946,-0.00024085,-0.00803118,0.00321
 206,-0.00426498,0.00019599,-0.00132567,0.00080118,-0.27629851,0.090407
 16,-0.04334017,0.29260974,-0.00018888,-0.00022690,-0.00009583,0.000059
 08,0.00022596,-0.00007297,-0.00002387,-0.00004792,0.00005194,-0.000757
 28,-0.00126120,-0.00012286,-0.00007833,-0.00105427,0.00015957,0.000014
 78,0.00012737,-0.00009904,0.00005399,0.00147445,0.00003385,-0.00005962
 ,-0.00043909,0.00014846,-0.00000698,-0.00007049,0.00001516,-0.00000573
 ,-0.00000186,-0.00001246,-0.00000865,-0.00000649,0.00000172,-0.0000022
 8,0.00000038,0.00000076,0.00000065,-0.00000503,0.00000047,0.00000064,-
 0.00000045,-0.00000017,0.00000315,-0.00000224,-0.00000795,0.00000228,-
 0.00000115,-0.00000080,0.00001910,-0.00000054,-0.00000184,0.00000052,-
 0.00000009,0.00000365,0.00013361,-0.00031371,0.00007840,-0.00005651,-0
 .00001302,0.00003658,0.00000010,0.00000486,-0.00000661,0.00002471,-0.0
 0003826,-0.00000375,-0.00000901,0.00000240,0.00000437,-0.00004668,0.00
 001942,0.00000467,-0.00000176,0.00000041,-0.00000451,-0.00010174,-0.00
 001036,0.00008461,-0.00000830,0.00001367,-0.00000278,0.00017229,-0.000
 03823,-0.00007663,-0.00003264,0.00005405,0.00003724,-0.00000148,-0.000
 05870,-0.00000076,0.00000459,-0.00000805,0.00000268,0.00000513,-0.0000
 2708,-0.00001047,0.00000669,-0.00000745,-0.00000243,-0.00000911,0.0000
 2269,-0.00002319,-0.00000009,-0.00000006,0.00000419,0.00002633,0.00001
 392,0.00000611,-0.00003056,-0.00002180,-0.00002826,0.00003909,0.000076
 72,-0.00006865,-0.00008298,-0.00003329,0.00007590,-0.00002352,0.000008
 23,-0.00001650,-0.00000260,-0.00000959,0.00000224,-0.00000519,0.000004
 24,0.00000207,-0.00000369,-0.00000402,-0.00000314,-0.00000182,-0.00000
 028,0.00000132,-0.00000230,-0.00000324,-0.00000031,-0.00000109,0.00000
 092,0.00000033,-0.00000532,0.00000337,-0.00000513,0.00000090,0.0000017
 8,-0.00000004,0.00001356,-0.00000484,0.00000663,0.00000369,-0.00000085
 ,-0.00000345,-0.00006837,0.00005659,0.00013905,-0.00004312,-0.00001128
 ,0.00000681,-0.00000412,-0.00000142,-0.00000650,0.00001662,-0.00002586
 ,0.00003023,0.00000731,-0.00000282,0.00000057,0.00002308,0.00002715,0.
 00000778,0.00000074,-0.00000083,0.00000229,-0.00001280,-0.00001654,-0.
 00001808,-0.00000100,-0.00000157,0.00000838,0.00006627,0.00002010,0.00
 003346,-0.00000464,-0.00000056,0.,-0.00804743,0.00481242,-0.00069473,0
 .00124758,0.00363483,-0.00364110,-0.00036240,0.00048354,-0.00030538,-0
 .00054368,-0.00056707,-0.00013008,-0.00035689,-0.00071625,0.00054048,0
 .00264519,0.00264072,-0.00537518,0.00090717,-0.00018392,0.00018068,0.0
 1704390,-0.00275940,0.00407009,-0.00161046,-0.00205343,0.00173992,0.08
 906405,-0.07248803,0.00723037,-0.09899392,0.06880934,0.00008547,0.0007
 8669,0.00100600,0.00001919,-0.00049249,0.00022541,0.00049986,0.0001574
 4,0.00008220,-0.00132658,0.00075624,-0.00041486,-0.00006479,0.00005016
 ,-0.00003290,0.00001179,0.00009647,0.00056697,0.00045258,-0.00074778,-
 0.00023099,-0.00015314,-0.00023000,-0.00116231,0.00003212,0.00016981,-
 0.00008233,-0.00009808,0.00003730,-0.00002005,0.00000910,0.00002877,-0
 .00000636,-0.00000967,-0.00000329,-0.00000285,-0.00001423,0.00001000,0
 .00001194,-0.00000856,0.00000392,0.00000425,-0.00000038,0.00001805,0.0
 0001989,-0.00001372,0.00000917,0.00000913,-0.00010660,-0.00002735,0.00
 001272,-0.00000096,0.00000232,-0.00000893,-0.00006557,0.00017115,-0.00
 005732,0.00012972,-0.00002391,-0.00004512,0.00000219,-0.00000108,0.000
 00928,0.00000437,0.00002127,-0.00001972,0.00002230,0.00001049,-0.00000
 615,0.00004744,0.00001468,-0.00003872,0.00001669,0.00001249,-0.0000030
 0,-0.00008367,0.00001317,-0.00002310,0.00005538,0.00004165,-0.00000975
 ,-0.00002847,-0.00001117,-0.00004120,-0.00013989,-0.00000260,0.0000344
 2,-0.00000173,-0.00005820,-0.00002292,0.00000039,-0.00000527,0.0000178
 5,0.00001728,0.00001637,-0.00002487,-0.00000558,0.00000180,-0.00001068
 ,0.00000184,0.00001764,-0.00005717,-0.00002444,-0.00000220,-0.00001332
 ,0.00005320,0.00002903,-0.00001465,-0.00003409,-0.00003884,-0.00001767
 ,0.00000974,-0.00000687,0.00002134,0.00000960,0.00001883,0.00003065,-0
 .00005161,0.00001010,-0.00004729,0.00000278,-0.00002411,0.00003049,-0.
 00000431,0.00000415,0.00000013,-0.00000575,-0.00000854,-0.00000568,-0.
 00000860,-0.00000339,0.00000165,-0.00000436,-0.00000335,-0.00000045,-0
 .00000558,-0.00000302,0.00000193,-0.00000842,0.00000602,-0.00001648,0.
 00000030,-0.00000023,0.00000376,0.00001068,0.00000149,0.00000640,0.000
 00247,0.00001008,-0.00001543,0.00018148,0.00008720,-0.00011005,0.00012
 345,-0.00003249,0.00009419,-0.00000595,0.00000683,-0.00000252,0.000009
 27,0.00004192,0.00000796,0.00000155,0.00000788,0.00001517,0.00000224,-
 0.00001261,0.00000867,0.00000103,0.00000104,0.00000405,0.00000678,-0.0
 0000552,0.00001764,-0.00000121,0.00000100,0.00000788,0.00003606,-0.000
 03910,0.00001475,-0.00003328,0.00002511,0.00000743,-0.02246849,0.00956
 781,-0.00140165,-0.00280822,-0.00410512,-0.00303867,-0.00146029,0.0004
 2746,0.00008504,0.00018134,-0.00024689,-0.00105849,0.00022201,0.000526
 69,-0.00011905,0.00031159,-0.00488908,-0.00102202,0.00101003,-0.000430
 59,0.00024250,0.01904454,-0.00728272,0.00677884,0.00060202,0.00185603,
 -0.00012107,-0.04446909,0.00757357,-0.05627933,0.05028547,-0.00391148,
 0.05622458\\0.00000500,0.00000842,-0.00000666,-0.00000775,0.00000041,0
 .00000005,0.00000135,-0.00000833,0.00000433,0.00000190,-0.00000069,-0.
 00000089,0.00000044,-0.00000183,-0.00000063,-0.00000007,-0.00000077,-0
 .00000057,-0.00000135,0.00000366,0.00000131,-0.00000034,-0.00000227,0.
 00000140,0.00000073,0.00000515,0.00000301,0.00000093,-0.00000021,0.000
 00069,0.00000055,-0.00000148,0.00000046,-0.00000058,-0.00000082,0.0000
 0017,-0.00000032,-0.00000048,0.00000142,-0.00000057,-0.00000183,0.0000
 0082,-0.00000186,-0.00000115,0.00000143,-0.00000001,-0.00000098,0.0000
 0170,-0.00000090,-0.00000207,0.00000123,-0.00000079,-0.00000037,0.0000
 0116,0.00000155,-0.00000857,-0.00000250,-0.00000252,0.00000178,0.00000
 327,-0.00000096,0.00000034,-0.00000014,0.00000034,0.00000069,0.0000008
 3,-0.00000111,0.00000131,0.00000150,-0.00000031,0.00000202,0.00000042,
 -0.00000054,0.00000122,0.00000073,-0.00000068,0.00000151,-0.00000008,-
 0.00000036,0.00000061,-0.00000052,0.00000094,0.00000077,0.00000277,0.0
 0000085,-0.00000083,-0.00000246,-0.00000029,-0.00000031,0.00000072,-0.
 00000027,0.00000002,0.00000070,-0.00000040,0.00000058,0.00000021,-0.00
 000038,0.00000044,0.00000071,0.00000011,0.00000016,0.00000015,-0.00000
 023,0.00000084,0.00000006,-0.00000048,0.00000104,-0.00000120,0.0000003
 3,0.00000046,-0.00000035,0.00000041,0.00000069,0.00000153,0.00000021,-
 0.00000005,-0.00000123,-0.00000301,0.00000117,-0.00000309,0.00000192,0
 .00000038,-0.00000036,-0.00000005,-0.00000090,0.00000009,0.00000039,-0
 .00000251,0.00000150,0.00000057,-0.00000092,-0.00000076,-0.00000128,-0
 .00000148,-0.00000235,0.00000092,-0.00000158,-0.00000042,0.00000330,0.
 00000017,-0.00000040,0.00000028,-0.00000196,-0.00000073,-0.00000023,-0
 .00000225,0.00000127,0.00000017,-0.00000092,-0.00000015,-0.00000016,0.
 00000179,-0.00000178,0.00000083,-0.00000083,0.00000136,-0.00000059,0.0
 0000051,0.00000053,0.00000002,0.00000032,-0.00000057,-0.00000005,-0.00
 000020,0.00000037,-0.00000006,-0.00000052,-0.00000007,0.00000053,-0.00
 000032,-0.00000052,0.00000042,-0.00000025,-0.00000083,0.00000042,-0.00
 000050,-0.00000071,0.00000052,-0.00000148,0.00000087,0.00000008,0.0000
 0011,-0.00000085,-0.00000155,0.00000125,-0.00000143,0.00000190,0.00000
 028,-0.00000131,0.00000016,0.00000075,-0.00000036,0.00000018,0.0000020
 2,0.00000082,0.00000035,0.00000134,-0.00000119,-0.00000021,0.00000160,
 -0.00000177,0.00000035,0.00000169,-0.00000114,0.00000084,0.00000047,-0
 .00000101,0.00000015,0.00000155,-0.00000080,0.00000046,0.00000144,0.00
 000059,-0.00000016,0.00000069,-0.00000037\\\@


 In the race for quality, there is no finish line.
                               -- David T. Kearns
 Job cpu time:       0 days 16 hours 15 minutes 25.8 seconds.
 File lengths (MBytes):  RWF=   4665 Int=      0 D2E=      0 Chk=     53 Scr=      1
 Normal termination of Gaussian 09 at Sat Apr  4 03:51:31 2020.
