 Entering Gaussian System, Link 0=g09
 Input=ru_znphos_co2_cis_bjd3.com
 Output=ru_znphos_co2_cis_bjd3.log
 Initial command:
 /home/programs/G09_D/g09/l1.exe "/state/partition1/stuart_2020-04-11-1414_8851/Gau-13616.inp" -scrdir="/state/partition1/stuart_2020-04-11-1414_8851/"
 Entering Link 1 = /home/programs/G09_D/g09/l1.exe PID=     13617.
  
 Copyright (c) 1988,1990,1992,1993,1995,1998,2003,2009,2013,
            Gaussian, Inc.  All Rights Reserved.
  
 This is part of the Gaussian(R) 09 program.  It is based on
 the Gaussian(R) 03 system (copyright 2003, Gaussian, Inc.),
 the Gaussian(R) 98 system (copyright 1998, Gaussian, Inc.),
 the Gaussian(R) 94 system (copyright 1995, Gaussian, Inc.),
 the Gaussian 92(TM) system (copyright 1992, Gaussian, Inc.),
 the Gaussian 90(TM) system (copyright 1990, Gaussian, Inc.),
 the Gaussian 88(TM) system (copyright 1988, Gaussian, Inc.),
 the Gaussian 86(TM) system (copyright 1986, Carnegie Mellon
 University), and the Gaussian 82(TM) system (copyright 1983,
 Carnegie Mellon University). Gaussian is a federally registered
 trademark of Gaussian, Inc.
  
 This software contains proprietary and confidential information,
 including trade secrets, belonging to Gaussian, Inc.
  
 This software is provided under written license and may be
 used, copied, transmitted, or stored only in accord with that
 written license.
  
 The following legend is applicable only to US Government
 contracts under FAR:
  
                    RESTRICTED RIGHTS LEGEND
  
 Use, reproduction and disclosure by the US Government is
 subject to restrictions as set forth in subparagraphs (a)
 and (c) of the Commercial Computer Software - Restricted
 Rights clause in FAR 52.227-19.
  
 Gaussian, Inc.
 340 Quinnipiac St., Bldg. 40, Wallingford CT 06492
  
  
 ---------------------------------------------------------------
 Warning -- This program may not be used in any manner that
 competes with the business of Gaussian, Inc. or will provide
 assistance to any competitor of Gaussian, Inc.  The licensee
 of this program is prohibited from giving any competitor of
 Gaussian, Inc. access to this program.  By using this program,
 the user acknowledges that Gaussian, Inc. is engaged in the
 business of creating and licensing software in the field of
 computational chemistry and represents and warrants to the
 licensee that it is not a competitor of Gaussian, Inc. and that
 it will not use this program in any manner prohibited above.
 ---------------------------------------------------------------
  

 Cite this work as:
 Gaussian 09, Revision D.01,
 M. J. Frisch, G. W. Trucks, H. B. Schlegel, G. E. Scuseria, 
 M. A. Robb, J. R. Cheeseman, G. Scalmani, V. Barone, B. Mennucci, 
 G. A. Petersson, H. Nakatsuji, M. Caricato, X. Li, H. P. Hratchian, 
 A. F. Izmaylov, J. Bloino, G. Zheng, J. L. Sonnenberg, M. Hada, 
 M. Ehara, K. Toyota, R. Fukuda, J. Hasegawa, M. Ishida, T. Nakajima, 
 Y. Honda, O. Kitao, H. Nakai, T. Vreven, J. A. Montgomery, Jr., 
 J. E. Peralta, F. Ogliaro, M. Bearpark, J. J. Heyd, E. Brothers, 
 K. N. Kudin, V. N. Staroverov, T. Keith, R. Kobayashi, J. Normand, 
 K. Raghavachari, A. Rendell, J. C. Burant, S. S. Iyengar, J. Tomasi, 
 M. Cossi, N. Rega, J. M. Millam, M. Klene, J. E. Knox, J. B. Cross, 
 V. Bakken, C. Adamo, J. Jaramillo, R. Gomperts, R. E. Stratmann, 
 O. Yazyev, A. J. Austin, R. Cammi, C. Pomelli, J. W. Ochterski, 
 R. L. Martin, K. Morokuma, V. G. Zakrzewski, G. A. Voth, 
 P. Salvador, J. J. Dannenberg, S. Dapprich, A. D. Daniels, 
 O. Farkas, J. B. Foresman, J. V. Ortiz, J. Cioslowski, 
 and D. J. Fox, Gaussian, Inc., Wallingford CT, 2013.
 
 ******************************************
 Gaussian 09:  EM64L-G09RevD.01 24-Apr-2013
                11-Apr-2020 
 ******************************************
 %nproc=8
 Will use up to    8 processors via shared memory.
 %mem=14GB
 --------------------------------------------------------------
 # gen bp86 int=ultrafine pseudo=read empiricaldispersion=gd3bj
 --------------------------------------------------------------
 1/38=1/1;
 2/12=2,17=6,18=5,40=1/2;
 3/5=7,11=2,16=1,17=8,25=1,30=1,74=404,75=-5,124=41/1,2,3;
 4//1;
 5/5=2,38=5/2;
 6/7=2,8=2,9=2,10=2,28=1/1;
 99/5=1,9=1/99;
 -------------------------------
 Ru (PPh3)3 H4 from high temp MD
 -------------------------------
 Symbolic Z-matrix:
 Charge =  0 Multiplicity = 1
 Ru                    0.0112   -0.5069   -0.30177 
 Zn                    0.12405   2.17559  -0.04406 
 P                     2.34087  -0.21881  -0.06703 
 P                    -2.33061  -0.19198  -0.03709 
 O                     0.07464  -3.54971   0.02596 
 O                    -0.02443   0.52358  -3.14463 
 C                     0.05476  -2.37033   0.08552 
 C                    -0.01811   0.2655   -1.98669 
 C                     2.01669   2.54377  -0.47214 
 C                     2.95006   1.47636  -0.55561 
 C                     4.28788   1.68966  -0.94437 
 H                     4.98761   0.84945  -1.00953 
 C                     4.72171   2.98547  -1.26717 
 H                     5.75659   3.15059  -1.58574 
 C                     3.82452   4.06135  -1.18318 
 H                     4.15837   5.07431  -1.43578 
 C                     2.49469   3.83889  -0.78305 
 H                     1.81443   4.69794  -0.72989 
 C                    -1.67815   2.48398   0.69167 
 C                    -1.99734   3.72813   1.29023 
 H                    -1.24667   4.5283    1.3066 
 C                    -3.25054   3.97738   1.87435 
 H                    -3.46292   4.95422   2.32378 
 C                    -4.2254    2.96743   1.89352 
 H                    -5.20148   3.14654   2.35723 
 C                    -3.94053   1.71718   1.3244 
 H                    -4.69247   0.92108   1.36299 
 C                    -2.68695   1.48156   0.71752 
 C                     2.77162  -0.33874   1.74778 
 C                     3.25996   0.76906   2.47088 
 H                     3.43299   1.72022   1.9588 
 C                     3.52596   0.65436   3.84598 
 H                     3.90323   1.52238   4.39699 
 C                     3.31343  -0.56389   4.50908 
 H                     3.52233  -0.65054   5.58054 
 C                     2.8312   -1.67328   3.79295 
 H                     2.66474  -2.62817   4.30267 
 C                     2.55334  -1.56172   2.42296 
 H                     2.16948  -2.42759   1.87426 
 C                     3.49901  -1.42389  -0.88224 
 C                     4.74442  -1.77576  -0.32021 
 H                     5.04608  -1.35936   0.64653 
 C                     5.59253  -2.67102  -0.99199 
 H                     6.5559   -2.94272  -0.54747 
 C                     5.20517  -3.2192   -2.22567 
 H                     5.86661  -3.9203   -2.74541 
 C                     3.96429  -2.87503  -2.78664 
 H                     3.65334  -3.30784  -3.74311 
 C                     3.1107   -1.98476  -2.11725 
 H                     2.1342   -1.72971  -2.54235 
 C                    -3.35026  -0.27907  -1.59297 
 C                    -4.28923   0.70784  -1.95219 
 H                    -4.45118   1.57217  -1.30093 
 C                    -5.01283   0.58823  -3.15112 
 H                    -5.73552   1.36395  -3.42581 
 C                    -4.80922  -0.51545  -3.99341 
 H                    -5.37315  -0.60446  -4.92786 
 C                    -3.87169  -1.5011   -3.64015 
 H                    -3.70005  -2.35923  -4.29832 
 C                    -3.13909  -1.38107  -2.45075 
 H                    -2.38959  -2.13604  -2.18883 
 C                    -3.21803  -1.36291   1.11607 
 C                    -4.50848  -1.86452   0.85317 
 H                    -5.02337  -1.59038  -0.07306 
 C                    -5.13291  -2.72464   1.77303 
 H                    -6.13306  -3.11472   1.55601 
 C                    -4.47859  -3.08428   2.96111 
 H                    -4.96615  -3.75649   3.67493 
 C                    -3.19182  -2.58599   3.22846 
 H                    -2.67235  -2.86869   4.15011 
 C                    -2.56246  -1.735     2.30883 
 H                    -1.54992  -1.36513   2.50906 
 
 Stoichiometry    C38H28O2P2RuZn
 Framework group  C1[X(C38H28O2P2RuZn)]
 Deg. of freedom   210
 Full point group                 C1      NOp   1
 Largest Abelian subgroup         C1      NOp   1
 Largest concise Abelian subgroup C1      NOp   1
                         Standard orientation:                         
 ---------------------------------------------------------------------
 Center     Atomic      Atomic             Coordinates (Angstroms)
 Number     Number       Type             X           Y           Z
 ---------------------------------------------------------------------
      1         44           0        0.011201   -0.506900   -0.301770
      2         30           0        0.124051    2.175590   -0.044060
      3         15           0        2.340871   -0.218810   -0.067030
      4         15           0       -2.330609   -0.191980   -0.037090
      5          8           0        0.074641   -3.549710    0.025960
      6          8           0       -0.024429    0.523580   -3.144630
      7          6           0        0.054761   -2.370330    0.085520
      8          6           0       -0.018109    0.265500   -1.986690
      9          6           0        2.016691    2.543770   -0.472140
     10          6           0        2.950061    1.476360   -0.555610
     11          6           0        4.287881    1.689660   -0.944370
     12          1           0        4.987611    0.849450   -1.009530
     13          6           0        4.721710    2.985470   -1.267170
     14          1           0        5.756590    3.150590   -1.585740
     15          6           0        3.824520    4.061350   -1.183180
     16          1           0        4.158370    5.074310   -1.435780
     17          6           0        2.494690    3.838890   -0.783050
     18          1           0        1.814430    4.697940   -0.729890
     19          6           0       -1.678149    2.483980    0.691670
     20          6           0       -1.997340    3.728130    1.290230
     21          1           0       -1.246670    4.528300    1.306600
     22          6           0       -3.250540    3.977380    1.874350
     23          1           0       -3.462920    4.954220    2.323780
     24          6           0       -4.225400    2.967430    1.893520
     25          1           0       -5.201480    3.146540    2.357230
     26          6           0       -3.940529    1.717180    1.324400
     27          1           0       -4.692469    0.921080    1.362990
     28          6           0       -2.686949    1.481560    0.717520
     29          6           0        2.771621   -0.338740    1.747780
     30          6           0        3.259961    0.769060    2.470880
     31          1           0        3.432991    1.720220    1.958800
     32          6           0        3.525961    0.654360    3.845980
     33          1           0        3.903231    1.522380    4.396990
     34          6           0        3.313431   -0.563890    4.509080
     35          1           0        3.522331   -0.650540    5.580540
     36          6           0        2.831201   -1.673280    3.792950
     37          1           0        2.664741   -2.628170    4.302670
     38          6           0        2.553341   -1.561720    2.422960
     39          1           0        2.169481   -2.427590    1.874260
     40          6           0        3.499011   -1.423890   -0.882240
     41          6           0        4.744421   -1.775760   -0.320210
     42          1           0        5.046081   -1.359360    0.646530
     43          6           0        5.592531   -2.671020   -0.991990
     44          1           0        6.555901   -2.942720   -0.547470
     45          6           0        5.205171   -3.219200   -2.225670
     46          1           0        5.866611   -3.920300   -2.745410
     47          6           0        3.964291   -2.875030   -2.786640
     48          1           0        3.653341   -3.307840   -3.743110
     49          6           0        3.110701   -1.984760   -2.117250
     50          1           0        2.134201   -1.729710   -2.542350
     51          6           0       -3.350259   -0.279070   -1.592970
     52          6           0       -4.289229    0.707840   -1.952190
     53          1           0       -4.451179    1.572170   -1.300930
     54          6           0       -5.012829    0.588230   -3.151120
     55          1           0       -5.735519    1.363950   -3.425810
     56          6           0       -4.809219   -0.515450   -3.993410
     57          1           0       -5.373149   -0.604460   -4.927860
     58          6           0       -3.871689   -1.501100   -3.640150
     59          1           0       -3.700049   -2.359230   -4.298320
     60          6           0       -3.139089   -1.381070   -2.450750
     61          1           0       -2.389589   -2.136040   -2.188830
     62          6           0       -3.218029   -1.362910    1.116070
     63          6           0       -4.508479   -1.864520    0.853170
     64          1           0       -5.023369   -1.590380   -0.073060
     65          6           0       -5.132909   -2.724640    1.773030
     66          1           0       -6.133059   -3.114720    1.556010
     67          6           0       -4.478589   -3.084280    2.961110
     68          1           0       -4.966149   -3.756490    3.674930
     69          6           0       -3.191819   -2.585990    3.228460
     70          1           0       -2.672349   -2.868690    4.150110
     71          6           0       -2.562459   -1.735000    2.308830
     72          1           0       -1.549919   -1.365130    2.509060
 ---------------------------------------------------------------------
 Rotational constants (GHZ):      0.0900203      0.0531087      0.0510823
 General basis read from cards:  (5D, 7F)
 ======================================================================================================
                                       Pseudopotential Parameters
 ======================================================================================================
  Center     Atomic      Valence      Angular      Power
  Number     Number     Electrons     Momentum     of R      Exponent        Coefficient   SO-Coeffient
 ======================================================================================================
    1         44           16
                                      G and up 
                                                     2        1.0000000        0.00000000    0.00000000
                                      S - G
                                                     2       11.1052690      209.82297100    0.00000000
                                                     2        5.4147450       30.65472600    0.00000000
                                      P - G
                                                     2        9.7712710      146.33618200    0.00000000
                                                     2        5.0739910       24.12787700    0.00000000
                                      D - G
                                                     2        7.6714230       67.51589700    0.00000000
                                                     2        4.1365650        9.87010400    0.00000000
                                      F - G
                                                     2       11.3600000      -28.34061600    0.00000000
                                                     2        5.6800000       -4.94462900    0.00000000
    2         30           20
                                      F and up 
                                                     2        1.0000000        0.00000000    0.00000000
                                      S - F
                                                     2       34.1500000      399.98728200    0.00000000
                                                     2       14.5900000       85.48565500    0.00000000
                                      P - F
                                                     2       39.7800000      277.14896000    0.00000000
                                                     2       14.9500000       69.05220500    0.00000000
                                      D - F
                                                     2       43.8000000      -34.14934900    0.00000000
                                                     2       14.9800000       -3.29183100    0.00000000
    3         15            5
                                      F and up 
                                                     2        1.0000000        0.00000000    0.00000000
                                      S - F
                                                     2        2.9405599       26.53226131    0.00000000
                                      P - F
                                                     2        2.2277126       11.49721021    0.00000000
                                      D - F
                                                     2        5.6617060      -16.77278000    0.00000000
    4         15            5
                                      F and up 
                                                     2        1.0000000        0.00000000    0.00000000
                                      S - F
                                                     2        2.9405599       26.53226131    0.00000000
                                      P - F
                                                     2        2.2277126       11.49721021    0.00000000
                                      D - F
                                                     2        5.6617060      -16.77278000    0.00000000
    5          8
                                   No pseudopotential on this center.
    6          8
                                   No pseudopotential on this center.
    7          6
                                   No pseudopotential on this center.
    8          6
                                   No pseudopotential on this center.
    9          6
                                   No pseudopotential on this center.
   10          6
                                   No pseudopotential on this center.
   11          6
                                   No pseudopotential on this center.
   12          1
                                   No pseudopotential on this center.
   13          6
                                   No pseudopotential on this center.
   14          1
                                   No pseudopotential on this center.
   15          6
                                   No pseudopotential on this center.
   16          1
                                   No pseudopotential on this center.
   17          6
                                   No pseudopotential on this center.
   18          1
                                   No pseudopotential on this center.
   19          6
                                   No pseudopotential on this center.
   20          6
                                   No pseudopotential on this center.
   21          1
                                   No pseudopotential on this center.
   22          6
                                   No pseudopotential on this center.
   23          1
                                   No pseudopotential on this center.
   24          6
                                   No pseudopotential on this center.
   25          1
                                   No pseudopotential on this center.
   26          6
                                   No pseudopotential on this center.
   27          1
                                   No pseudopotential on this center.
   28          6
                                   No pseudopotential on this center.
   29          6
                                   No pseudopotential on this center.
   30          6
                                   No pseudopotential on this center.
   31          1
                                   No pseudopotential on this center.
   32          6
                                   No pseudopotential on this center.
   33          1
                                   No pseudopotential on this center.
   34          6
                                   No pseudopotential on this center.
   35          1
                                   No pseudopotential on this center.
   36          6
                                   No pseudopotential on this center.
   37          1
                                   No pseudopotential on this center.
   38          6
                                   No pseudopotential on this center.
   39          1
                                   No pseudopotential on this center.
   40          6
                                   No pseudopotential on this center.
   41          6
                                   No pseudopotential on this center.
   42          1
                                   No pseudopotential on this center.
   43          6
                                   No pseudopotential on this center.
   44          1
                                   No pseudopotential on this center.
   45          6
                                   No pseudopotential on this center.
   46          1
                                   No pseudopotential on this center.
   47          6
                                   No pseudopotential on this center.
   48          1
                                   No pseudopotential on this center.
   49          6
                                   No pseudopotential on this center.
   50          1
                                   No pseudopotential on this center.
   51          6
                                   No pseudopotential on this center.
   52          6
                                   No pseudopotential on this center.
   53          1
                                   No pseudopotential on this center.
   54          6
                                   No pseudopotential on this center.
   55          1
                                   No pseudopotential on this center.
   56          6
                                   No pseudopotential on this center.
   57          1
                                   No pseudopotential on this center.
   58          6
                                   No pseudopotential on this center.
   59          1
                                   No pseudopotential on this center.
   60          6
                                   No pseudopotential on this center.
   61          1
                                   No pseudopotential on this center.
   62          6
                                   No pseudopotential on this center.
   63          6
                                   No pseudopotential on this center.
   64          1
                                   No pseudopotential on this center.
   65          6
                                   No pseudopotential on this center.
   66          1
                                   No pseudopotential on this center.
   67          6
                                   No pseudopotential on this center.
   68          1
                                   No pseudopotential on this center.
   69          6
                                   No pseudopotential on this center.
   70          1
                                   No pseudopotential on this center.
   71          6
                                   No pseudopotential on this center.
   72          1
                                   No pseudopotential on this center.
 ======================================================================================================
 There are   846 symmetry adapted cartesian basis functions of A   symmetry.
 There are   798 symmetry adapted basis functions of A   symmetry.
   798 basis functions,  1490 primitive gaussians,   846 cartesian basis functions
   159 alpha electrons      159 beta electrons
       nuclear repulsion energy      5467.0043119343 Hartrees.
 NAtoms=   72 NActive=   72 NUniq=   72 SFac= 1.00D+00 NAtFMM=   60 NAOKFM=T Big=T
 Integral buffers will be    131072 words long.
 Raffenetti 2 integral format.
 Two-electron integral symmetry is turned on.
 Nuclear repulsion after empirical dispersion term =     5466.7619316630 Hartrees.
 One-electron integrals computed using PRISM.
   1 Symmetry operations used in ECPInt.
 ECPInt:  NShTT=   39903 NPrTT=  205958 LenC2=   29349 LenP2D=   83321.
 LDataN:  DoStor=T MaxTD1= 6 Len=  172
 NBasis=   798 RedAO= T EigKep=  4.52D-04  NBF=   798
 NBsUse=   798 1.00D-06 EigRej= -1.00D+00 NBFU=   798
 Defaulting to unpruned grid for atomic number  44.
 ExpMin= 1.00D-02 ExpMax= 5.48D+03 ExpMxC= 8.25D+02 IAcc=3 IRadAn=         5 AccDes= 0.00D+00
 Harris functional with IExCor=  404 and IRadAn=       5 diagonalized for initial guess.
 HarFok:  IExCor=  404 AccDes= 0.00D+00 IRadAn=         5 IDoV= 1 UseB2=F ITyADJ=14
 ICtDFT=  3500011 ScaDFX=  1.000000  1.000000  1.000000  1.000000
 Defaulting to unpruned grid for atomic number  44.
 Defaulting to unpruned grid for atomic number  44.
 Defaulting to unpruned grid for atomic number  44.
 Defaulting to unpruned grid for atomic number  44.
 Defaulting to unpruned grid for atomic number  44.
 Defaulting to unpruned grid for atomic number  44.
 Defaulting to unpruned grid for atomic number  44.
 Defaulting to unpruned grid for atomic number  44.
 FoFCou: FMM=F IPFlag=           0 FMFlag=      100000 FMFlg1=        2001
         NFxFlg=           0 DoJE=T BraDBF=F KetDBF=T FulRan=T
         wScrn=  0.000000 ICntrl=     500 IOpCl=  0 I1Cent=   200000004 NGrid=           0
         NMat0=    1 NMatS0=      1 NMatT0=    0 NMatD0=    1 NMtDS0=    0 NMtDT0=    0
 Petite list used in FoFCou.
 Requested convergence on RMS density matrix=1.00D-08 within 128 cycles.
 Requested convergence on MAX density matrix=1.00D-06.
 Requested convergence on             energy=1.00D-06.
 No special actions if energy rises.
 Defaulting to unpruned grid for atomic number  44.
 Defaulting to unpruned grid for atomic number  44.
 Defaulting to unpruned grid for atomic number  44.
 Defaulting to unpruned grid for atomic number  44.
 Defaulting to unpruned grid for atomic number  44.
 Defaulting to unpruned grid for atomic number  44.
 Defaulting to unpruned grid for atomic number  44.
 Defaulting to unpruned grid for atomic number  44.
 EnCoef did    17 forward-backward iterations
 EnCoef did   100 forward-backward iterations
 EnCoef did    11 forward-backward iterations
 EnCoef did     4 forward-backward iterations
 EnCoef did     2 forward-backward iterations
 SCF Done:  E(RB-P86) =  -1951.10383148     A.U. after   20 cycles
            NFock= 20  Conv=0.71D-08     -V/T= 2.0878

 **********************************************************************

            Population analysis using the SCF density.

 **********************************************************************

 Orbital symmetries:
       Occupied  (A) (A) (A) (A) (A) (A) (A) (A) (A) (A) (A) (A)
                 (A) (A) (A) (A) (A) (A) (A) (A) (A) (A) (A) (A)
                 (A) (A) (A) (A) (A) (A) (A) (A) (A) (A) (A) (A)
                 (A) (A) (A) (A) (A) (A) (A) (A) (A) (A) (A) (A)
                 (A) (A) (A) (A) (A) (A) (A) (A) (A) (A) (A) (A)
                 (A) (A) (A) (A) (A) (A) (A) (A) (A) (A) (A) (A)
                 (A) (A) (A) (A) (A) (A) (A) (A) (A) (A) (A) (A)
                 (A) (A) (A) (A) (A) (A) (A) (A) (A) (A) (A) (A)
                 (A) (A) (A) (A) (A) (A) (A) (A) (A) (A) (A) (A)
                 (A) (A) (A) (A) (A) (A) (A) (A) (A) (A) (A) (A)
                 (A) (A) (A) (A) (A) (A) (A) (A) (A) (A) (A) (A)
                 (A) (A) (A) (A) (A) (A) (A) (A) (A) (A) (A) (A)
                 (A) (A) (A) (A) (A) (A) (A) (A) (A) (A) (A) (A)
                 (A) (A) (A)
       Virtual   (A) (A) (A) (A) (A) (A) (A) (A) (A) (A) (A) (A)
                 (A) (A) (A) (A) (A) (A) (A) (A) (A) (A) (A) (A)
                 (A) (A) (A) (A) (A) (A) (A) (A) (A) (A) (A) (A)
                 (A) (A) (A) (A) (A) (A) (A) (A) (A) (A) (A) (A)
                 (A) (A) (A) (A) (A) (A) (A) (A) (A) (A) (A) (A)
                 (A) (A) (A) (A) (A) (A) (A) (A) (A) (A) (A) (A)
                 (A) (A) (A) (A) (A) (A) (A) (A) (A) (A) (A) (A)
                 (A) (A) (A) (A) (A) (A) (A) (A) (A) (A) (A) (A)
                 (A) (A) (A) (A) (A) (A) (A) (A) (A) (A) (A) (A)
                 (A) (A) (A) (A) (A) (A) (A) (A) (A) (A) (A) (A)
                 (A) (A) (A) (A) (A) (A) (A) (A) (A) (A) (A) (A)
                 (A) (A) (A) (A) (A) (A) (A) (A) (A) (A) (A) (A)
                 (A) (A) (A) (A) (A) (A) (A) (A) (A) (A) (A) (A)
                 (A) (A) (A) (A) (A) (A) (A) (A) (A) (A) (A) (A)
                 (A) (A) (A) (A) (A) (A) (A) (A) (A) (A) (A) (A)
                 (A) (A) (A) (A) (A) (A) (A) (A) (A) (A) (A) (A)
                 (A) (A) (A) (A) (A) (A) (A) (A) (A) (A) (A) (A)
                 (A) (A) (A) (A) (A) (A) (A) (A) (A) (A) (A) (A)
                 (A) (A) (A) (A) (A) (A) (A) (A) (A) (A) (A) (A)
                 (A) (A) (A) (A) (A) (A) (A) (A) (A) (A) (A) (A)
                 (A) (A) (A) (A) (A) (A) (A) (A) (A) (A) (A) (A)
                 (A) (A) (A) (A) (A) (A) (A) (A) (A) (A) (A) (A)
                 (A) (A) (A) (A) (A) (A) (A) (A) (A) (A) (A) (A)
                 (A) (A) (A) (A) (A) (A) (A) (A) (A) (A) (A) (A)
                 (A) (A) (A) (A) (A) (A) (A) (A) (A) (A) (A) (A)
                 (A) (A) (A) (A) (A) (A) (A) (A) (A) (A) (A) (A)
                 (A) (A) (A) (A) (A) (A) (A) (A) (A) (A) (A) (A)
                 (A) (A) (A) (A) (A) (A) (A) (A) (A) (A) (A) (A)
                 (A) (A) (A) (A) (A) (A) (A) (A) (A) (A) (A) (A)
                 (A) (A) (A) (A) (A) (A) (A) (A) (A) (A) (A) (A)
                 (A) (A) (A) (A) (A) (A) (A) (A) (A) (A) (A) (A)
                 (A) (A) (A) (A) (A) (A) (A) (A) (A) (A) (A) (A)
                 (A) (A) (A) (A) (A) (A) (A) (A) (A) (A) (A) (A)
                 (A) (A) (A) (A) (A) (A) (A) (A) (A) (A) (A) (A)
                 (A) (A) (A) (A) (A) (A) (A) (A) (A) (A) (A) (A)
                 (A) (A) (A) (A) (A) (A) (A) (A) (A) (A) (A) (A)
                 (A) (A) (A) (A) (A) (A) (A) (A) (A) (A) (A) (A)
                 (A) (A) (A) (A) (A) (A) (A) (A) (A) (A) (A) (A)
                 (A) (A) (A) (A) (A) (A) (A) (A) (A) (A) (A) (A)
                 (A) (A) (A) (A) (A) (A) (A) (A) (A) (A) (A) (A)
                 (A) (A) (A) (A) (A) (A) (A) (A) (A) (A) (A) (A)
                 (A) (A) (A) (A) (A) (A) (A) (A) (A) (A) (A) (A)
                 (A) (A) (A) (A) (A) (A) (A) (A) (A) (A) (A) (A)
                 (A) (A) (A) (A) (A) (A) (A) (A) (A) (A) (A) (A)
                 (A) (A) (A) (A) (A) (A) (A) (A) (A) (A) (A) (A)
                 (A) (A) (A) (A) (A) (A) (A) (A) (A) (A) (A) (A)
                 (A) (A) (A) (A) (A) (A) (A) (A) (A) (A) (A) (A)
                 (A) (A) (A) (A) (A) (A) (A) (A) (A) (A) (A) (A)
                 (A) (A) (A) (A) (A) (A) (A) (A) (A) (A) (A) (A)
                 (A) (A) (A) (A) (A) (A) (A) (A) (A) (A) (A) (A)
                 (A) (A) (A) (A) (A) (A) (A) (A) (A) (A) (A) (A)
                 (A) (A) (A) (A) (A) (A) (A) (A) (A) (A) (A) (A)
                 (A) (A) (A) (A) (A) (A) (A) (A) (A) (A) (A) (A)
                 (A) (A) (A)
 The electronic state is 1-A.
 Alpha  occ. eigenvalues --  -18.83043 -18.81729  -9.98639  -9.98329  -9.93431
 Alpha  occ. eigenvalues --   -9.93103  -9.92899  -9.92877  -9.92579  -9.92564
 Alpha  occ. eigenvalues --   -9.92550  -9.92528  -9.92461  -9.92419  -9.92392
 Alpha  occ. eigenvalues --   -9.92353  -9.92320  -9.92249  -9.92204  -9.92198
 Alpha  occ. eigenvalues --   -9.92182  -9.92178  -9.92132  -9.92125  -9.92122
 Alpha  occ. eigenvalues --   -9.92093  -9.92066  -9.92052  -9.91982  -9.91918
 Alpha  occ. eigenvalues --   -9.91903  -9.91780  -9.91684  -9.91660  -9.91480
 Alpha  occ. eigenvalues --   -9.91431  -9.91356  -9.91179  -9.90500  -9.90217
 Alpha  occ. eigenvalues --   -4.81913  -3.05487  -3.05196  -3.04765  -2.85756
 Alpha  occ. eigenvalues --   -1.75092  -1.74091  -1.71941  -0.98810  -0.97537
 Alpha  occ. eigenvalues --   -0.78533  -0.78283  -0.77883  -0.77593  -0.76899
 Alpha  occ. eigenvalues --   -0.76722  -0.70528  -0.70342  -0.68097  -0.67945
 Alpha  occ. eigenvalues --   -0.67823  -0.67676  -0.67669  -0.67376  -0.66893
 Alpha  occ. eigenvalues --   -0.66816  -0.66528  -0.66256  -0.59724  -0.59432
 Alpha  occ. eigenvalues --   -0.55168  -0.54991  -0.54929  -0.54706  -0.54252
 Alpha  occ. eigenvalues --   -0.54094  -0.53700  -0.53602  -0.53057  -0.52760
 Alpha  occ. eigenvalues --   -0.50711  -0.50340  -0.48362  -0.47007  -0.46782
 Alpha  occ. eigenvalues --   -0.46520  -0.46075  -0.45899  -0.44565  -0.44011
 Alpha  occ. eigenvalues --   -0.41143  -0.41132  -0.40981  -0.40867  -0.40730
 Alpha  occ. eigenvalues --   -0.40559  -0.40238  -0.40222  -0.39993  -0.39800
 Alpha  occ. eigenvalues --   -0.39655  -0.39518  -0.39220  -0.39039  -0.38683
 Alpha  occ. eigenvalues --   -0.38459  -0.38056  -0.37901  -0.37853  -0.37706
 Alpha  occ. eigenvalues --   -0.37582  -0.37504  -0.37274  -0.36861  -0.36748
 Alpha  occ. eigenvalues --   -0.36571  -0.36200  -0.35837  -0.35657  -0.35391
 Alpha  occ. eigenvalues --   -0.35172  -0.34409  -0.34285  -0.33311  -0.33245
 Alpha  occ. eigenvalues --   -0.33042  -0.32732  -0.32381  -0.32290  -0.31942
 Alpha  occ. eigenvalues --   -0.31863  -0.30778  -0.30577  -0.30530  -0.30366
 Alpha  occ. eigenvalues --   -0.29951  -0.29327  -0.29015  -0.28472  -0.28338
 Alpha  occ. eigenvalues --   -0.26749  -0.26043  -0.23969  -0.23646  -0.23471
 Alpha  occ. eigenvalues --   -0.23177  -0.23166  -0.23070  -0.22863  -0.22648
 Alpha  occ. eigenvalues --   -0.22354  -0.22223  -0.21992  -0.21700  -0.21447
 Alpha  occ. eigenvalues --   -0.20874  -0.18563  -0.18041  -0.16850
 Alpha virt. eigenvalues --   -0.09896  -0.06353  -0.05790  -0.05460  -0.05374
 Alpha virt. eigenvalues --   -0.05207  -0.05010  -0.04546  -0.04347  -0.04061
 Alpha virt. eigenvalues --   -0.03739  -0.03307  -0.03009  -0.02340  -0.01270
 Alpha virt. eigenvalues --   -0.01166   0.00709   0.00931   0.01691   0.01877
 Alpha virt. eigenvalues --    0.02886   0.03871   0.04106   0.04449   0.04863
 Alpha virt. eigenvalues --    0.05182   0.05544   0.06038   0.06842   0.07239
 Alpha virt. eigenvalues --    0.07291   0.07974   0.08376   0.08395   0.09069
 Alpha virt. eigenvalues --    0.09401   0.09746   0.09854   0.10345   0.10550
 Alpha virt. eigenvalues --    0.10941   0.11063   0.11448   0.11509   0.11873
 Alpha virt. eigenvalues --    0.12076   0.12362   0.12614   0.12681   0.12907
 Alpha virt. eigenvalues --    0.13071   0.13395   0.13830   0.14051   0.14495
 Alpha virt. eigenvalues --    0.14792   0.15004   0.15114   0.15742   0.15873
 Alpha virt. eigenvalues --    0.16169   0.16310   0.16484   0.16817   0.17380
 Alpha virt. eigenvalues --    0.17572   0.18489   0.19118   0.19677   0.20011
 Alpha virt. eigenvalues --    0.20354   0.20792   0.21456   0.22111   0.22238
 Alpha virt. eigenvalues --    0.23197   0.23445   0.23785   0.24485   0.24604
 Alpha virt. eigenvalues --    0.24712   0.25172   0.25540   0.25712   0.25780
 Alpha virt. eigenvalues --    0.26190   0.26307   0.26691   0.26870   0.27283
 Alpha virt. eigenvalues --    0.27369   0.27782   0.27878   0.27961   0.28330
 Alpha virt. eigenvalues --    0.29209   0.29421   0.29692   0.30227   0.30680
 Alpha virt. eigenvalues --    0.31300   0.31837   0.33084   0.33342   0.34368
 Alpha virt. eigenvalues --    0.34646   0.34875   0.36086   0.36341   0.37013
 Alpha virt. eigenvalues --    0.38353   0.39341   0.40028   0.41203   0.41769
 Alpha virt. eigenvalues --    0.42470   0.43023   0.44769   0.45401   0.47084
 Alpha virt. eigenvalues --    0.47312   0.48034   0.48174   0.48502   0.48607
 Alpha virt. eigenvalues --    0.48950   0.49069   0.49328   0.49394   0.49554
 Alpha virt. eigenvalues --    0.49758   0.50065   0.50197   0.50535   0.50638
 Alpha virt. eigenvalues --    0.50858   0.51444   0.51690   0.51844   0.52000
 Alpha virt. eigenvalues --    0.52067   0.52256   0.52533   0.52625   0.52901
 Alpha virt. eigenvalues --    0.53660   0.53763   0.54265   0.54556   0.54732
 Alpha virt. eigenvalues --    0.54949   0.55163   0.55506   0.55530   0.55670
 Alpha virt. eigenvalues --    0.55907   0.55994   0.56211   0.56494   0.56726
 Alpha virt. eigenvalues --    0.56914   0.57136   0.57329   0.57743   0.57920
 Alpha virt. eigenvalues --    0.58046   0.58233   0.58745   0.59043   0.59499
 Alpha virt. eigenvalues --    0.59744   0.59900   0.60581   0.60938   0.61003
 Alpha virt. eigenvalues --    0.61572   0.62248   0.62612   0.62885   0.63043
 Alpha virt. eigenvalues --    0.63995   0.64247   0.64496   0.65110   0.65866
 Alpha virt. eigenvalues --    0.66078   0.67256   0.67749   0.68529   0.68582
 Alpha virt. eigenvalues --    0.69214   0.69578   0.70734   0.71206   0.71655
 Alpha virt. eigenvalues --    0.71890   0.72331   0.73055   0.73682   0.73777
 Alpha virt. eigenvalues --    0.74630   0.75081   0.75590   0.75931   0.76083
 Alpha virt. eigenvalues --    0.76391   0.76586   0.76832   0.76891   0.76943
 Alpha virt. eigenvalues --    0.77099   0.77253   0.77299   0.77531   0.77749
 Alpha virt. eigenvalues --    0.78005   0.78247   0.79069   0.79175   0.79539
 Alpha virt. eigenvalues --    0.79989   0.80113   0.80497   0.81171   0.81868
 Alpha virt. eigenvalues --    0.82235   0.82568   0.82838   0.83244   0.83649
 Alpha virt. eigenvalues --    0.83983   0.84339   0.84434   0.84833   0.84960
 Alpha virt. eigenvalues --    0.85226   0.85668   0.85908   0.86469   0.86924
 Alpha virt. eigenvalues --    0.87076   0.87620   0.88523   0.88972   0.89059
 Alpha virt. eigenvalues --    0.89514   0.89631   0.89738   0.90121   0.90762
 Alpha virt. eigenvalues --    0.90933   0.91775   0.92027   0.92645   0.93136
 Alpha virt. eigenvalues --    0.93689   0.94083   0.94475   0.95151   0.95379
 Alpha virt. eigenvalues --    0.96163   0.97204   0.98034   0.98880   0.98944
 Alpha virt. eigenvalues --    0.99185   1.00111   1.00485   1.00808   1.01089
 Alpha virt. eigenvalues --    1.02019   1.02319   1.03776   1.03947   1.04279
 Alpha virt. eigenvalues --    1.04677   1.05337   1.05592   1.06128   1.06628
 Alpha virt. eigenvalues --    1.07912   1.08054   1.08162   1.08275   1.09223
 Alpha virt. eigenvalues --    1.09539   1.09773   1.10191   1.10562   1.11531
 Alpha virt. eigenvalues --    1.11615   1.11851   1.12563   1.13526   1.13673
 Alpha virt. eigenvalues --    1.14163   1.14401   1.16053   1.17306   1.17716
 Alpha virt. eigenvalues --    1.18841   1.19044   1.19196   1.19962   1.20963
 Alpha virt. eigenvalues --    1.21305   1.21495   1.22058   1.23802   1.23814
 Alpha virt. eigenvalues --    1.24238   1.24978   1.25286   1.25882   1.26348
 Alpha virt. eigenvalues --    1.27860   1.28114   1.28987   1.29787   1.30536
 Alpha virt. eigenvalues --    1.30861   1.31034   1.31355   1.31904   1.32536
 Alpha virt. eigenvalues --    1.32919   1.33164   1.33334   1.33767   1.33982
 Alpha virt. eigenvalues --    1.34177   1.34452   1.34657   1.34869   1.35266
 Alpha virt. eigenvalues --    1.35534   1.36045   1.36377   1.36488   1.36919
 Alpha virt. eigenvalues --    1.37268   1.37500   1.37956   1.38275   1.38960
 Alpha virt. eigenvalues --    1.39757   1.40353   1.40899   1.41348   1.41862
 Alpha virt. eigenvalues --    1.43289   1.43456   1.43707   1.45060   1.45841
 Alpha virt. eigenvalues --    1.47447   1.48543   1.49614   1.50653   1.51113
 Alpha virt. eigenvalues --    1.52278   1.52895   1.53355   1.55288   1.55644
 Alpha virt. eigenvalues --    1.57167   1.57737   1.59328   1.59891   1.60193
 Alpha virt. eigenvalues --    1.62947   1.63332   1.64388   1.65481   1.66732
 Alpha virt. eigenvalues --    1.68934   1.69314   1.69785   1.70118   1.70515
 Alpha virt. eigenvalues --    1.70745   1.71097   1.71675   1.72019   1.72379
 Alpha virt. eigenvalues --    1.72589   1.72997   1.73557   1.73788   1.73937
 Alpha virt. eigenvalues --    1.74194   1.74505   1.77389   1.77861   1.78660
 Alpha virt. eigenvalues --    1.79035   1.79755   1.81549   1.82819   1.83131
 Alpha virt. eigenvalues --    1.83439   1.83657   1.83818   1.84134   1.84322
 Alpha virt. eigenvalues --    1.85438   1.85548   1.85833   1.86078   1.86399
 Alpha virt. eigenvalues --    1.86735   1.87756   1.88912   1.89410   1.89928
 Alpha virt. eigenvalues --    1.90194   1.90406   1.90687   1.90956   1.91369
 Alpha virt. eigenvalues --    1.91473   1.91742   1.91795   1.92069   1.92132
 Alpha virt. eigenvalues --    1.92367   1.92651   1.93000   1.93544   1.93576
 Alpha virt. eigenvalues --    1.94150   1.94294   1.94480   1.94696   1.95928
 Alpha virt. eigenvalues --    1.96132   1.96338   1.97040   1.97388   1.97449
 Alpha virt. eigenvalues --    1.97825   1.99396   1.99788   1.99997   2.00114
 Alpha virt. eigenvalues --    2.01776   2.02326   2.02408   2.03177   2.03385
 Alpha virt. eigenvalues --    2.03821   2.04131   2.04915   2.05186   2.05645
 Alpha virt. eigenvalues --    2.06169   2.10076   2.10826   2.11557   2.13266
 Alpha virt. eigenvalues --    2.18795   2.19166   2.19290   2.19351   2.20672
 Alpha virt. eigenvalues --    2.21000   2.21070   2.21399   2.21562   2.21816
 Alpha virt. eigenvalues --    2.22002   2.22131   2.25056   2.25151   2.26804
 Alpha virt. eigenvalues --    2.27285   2.27535   2.27771   2.27913   2.28045
 Alpha virt. eigenvalues --    2.29106   2.29270   2.29411   2.29527   2.29745
 Alpha virt. eigenvalues --    2.29936   2.30171   2.30590   2.30660   2.30894
 Alpha virt. eigenvalues --    2.32659   2.32833   2.32981   2.33097   2.34679
 Alpha virt. eigenvalues --    2.35400   2.35687   2.35724   2.35920   2.38013
 Alpha virt. eigenvalues --    2.38306   2.38497   2.38862   2.39167   2.39345
 Alpha virt. eigenvalues --    2.39691   2.39906   2.41538   2.42908   2.43007
 Alpha virt. eigenvalues --    2.43248   2.43438   2.43807   2.43892   2.44239
 Alpha virt. eigenvalues --    2.44365   2.44477   2.45116   2.45228   2.45929
 Alpha virt. eigenvalues --    2.46382   2.46945   2.47569   2.48020   2.48126
 Alpha virt. eigenvalues --    2.48765   2.49424   2.49831   2.50363   2.50453
 Alpha virt. eigenvalues --    2.50901   2.51153   2.51243   2.52277   2.53033
 Alpha virt. eigenvalues --    2.53413   2.53813   2.54015   2.54179   2.54282
 Alpha virt. eigenvalues --    2.54342   2.55027   2.55254   2.56240   2.56317
 Alpha virt. eigenvalues --    2.56656   2.57715   2.58134   2.59017   2.60210
 Alpha virt. eigenvalues --    2.61371   2.61636   2.61790   2.63060   2.63372
 Alpha virt. eigenvalues --    2.63396   2.63497   2.63872   2.64492   2.66293
 Alpha virt. eigenvalues --    2.66671   2.67396   2.67981   2.68530   2.69844
 Alpha virt. eigenvalues --    2.71090   2.72128   2.72340   2.72620   2.72813
 Alpha virt. eigenvalues --    2.73767   2.79393   2.85124   2.85502   2.85690
 Alpha virt. eigenvalues --    2.86131   2.88124   2.89051   2.91665   2.91831
 Alpha virt. eigenvalues --    2.95182   2.95281   2.95582   2.95948   2.99986
 Alpha virt. eigenvalues --    3.04849   3.07495   3.08665   3.08960   3.09052
 Alpha virt. eigenvalues --    3.10150   3.10985   3.11103   3.13335   3.13532
 Alpha virt. eigenvalues --    3.13657   3.13839   3.13942   3.14528   3.14799
 Alpha virt. eigenvalues --    3.16181   3.16397   3.16488   3.16763   3.18122
 Alpha virt. eigenvalues --    3.18467   3.21264   3.21481   3.21538   3.21750
 Alpha virt. eigenvalues --    3.22915   3.23167   3.30879   3.30988   3.31615
 Alpha virt. eigenvalues --    3.32090   3.36748   3.37065   3.41279   3.41499
 Alpha virt. eigenvalues --    3.41846   3.41953   3.71104   3.71533   3.76535
 Alpha virt. eigenvalues --    3.76883   3.77247   3.77528   3.97781   5.77766
 Alpha virt. eigenvalues --    5.84565  34.62603  34.72498  35.09137  46.03324
 Alpha virt. eigenvalues --   68.58684  68.76720  68.79750  88.43343
          Condensed to atoms (all electrons):
 Mulliken charges:
               1
     1  Ru  -0.449214
     2  Zn   0.016277
     3  P    0.143710
     4  P    0.116309
     5  O   -0.295780
     6  O   -0.304342
     7  C    0.271585
     8  C    0.281669
     9  C    0.068028
    10  C   -0.039041
    11  C   -0.105841
    12  H    0.102735
    13  C   -0.109150
    14  H    0.100488
    15  C   -0.092590
    16  H    0.099403
    17  C   -0.148861
    18  H    0.099612
    19  C    0.065085
    20  C   -0.145502
    21  H    0.102275
    22  C   -0.090556
    23  H    0.100274
    24  C   -0.112361
    25  H    0.101660
    26  C   -0.102362
    27  H    0.107838
    28  C   -0.044582
    29  C    0.011708
    30  C   -0.115551
    31  H    0.125950
    32  C   -0.101979
    33  H    0.107243
    34  C   -0.096170
    35  H    0.105099
    36  C   -0.104680
    37  H    0.108930
    38  C   -0.111376
    39  H    0.136546
    40  C    0.008759
    41  C   -0.122244
    42  H    0.117472
    43  C   -0.103616
    44  H    0.105244
    45  C   -0.093452
    46  H    0.105362
    47  C   -0.104497
    48  H    0.111448
    49  C   -0.099032
    50  H    0.151307
    51  C    0.004859
    52  C   -0.115917
    53  H    0.113081
    54  C   -0.100734
    55  H    0.104710
    56  C   -0.094560
    57  H    0.104026
    58  C   -0.103003
    59  H    0.108841
    60  C   -0.102251
    61  H    0.141340
    62  C    0.024307
    63  C   -0.123457
    64  H    0.116085
    65  C   -0.102131
    66  H    0.104271
    67  C   -0.095632
    68  H    0.103543
    69  C   -0.102136
    70  H    0.106793
    71  C   -0.104240
    72  H    0.132969
 Sum of Mulliken charges =   0.00000
 Mulliken charges with hydrogens summed into heavy atoms:
               1
     1  Ru  -0.449214
     2  Zn   0.016277
     3  P    0.143710
     4  P    0.116309
     5  O   -0.295780
     6  O   -0.304342
     7  C    0.271585
     8  C    0.281669
     9  C    0.068028
    10  C   -0.039041
    11  C   -0.003105
    13  C   -0.008662
    15  C    0.006813
    17  C   -0.049249
    19  C    0.065085
    20  C   -0.043227
    22  C    0.009717
    24  C   -0.010701
    26  C    0.005475
    28  C   -0.044582
    29  C    0.011708
    30  C    0.010400
    32  C    0.005264
    34  C    0.008928
    36  C    0.004250
    38  C    0.025171
    40  C    0.008759
    41  C   -0.004772
    43  C    0.001627
    45  C    0.011910
    47  C    0.006951
    49  C    0.052275
    51  C    0.004859
    52  C   -0.002835
    54  C    0.003976
    56  C    0.009465
    58  C    0.005838
    60  C    0.039089
    62  C    0.024307
    63  C   -0.007372
    65  C    0.002140
    67  C    0.007911
    69  C    0.004656
    71  C    0.028728
 Electronic spatial extent (au):  <R**2>=          23972.8187
 Charge=              0.0000 electrons
 Dipole moment (field-independent basis, Debye):
    X=              0.0143    Y=              0.2173    Z=              2.6026  Tot=              2.6117
 Quadrupole moment (field-independent basis, Debye-Ang):
   XX=           -244.0885   YY=           -274.7804   ZZ=           -271.6491
   XY=             -1.7639   XZ=              4.0318   YZ=              3.4132
 Traceless Quadrupole moment (field-independent basis, Debye-Ang):
   XX=             19.4175   YY=            -11.2744   ZZ=             -8.1431
   XY=             -1.7639   XZ=              4.0318   YZ=              3.4132
 Octapole moment (field-independent basis, Debye-Ang**2):
  XXX=             -7.0770  YYY=            113.9582  ZZZ=             25.3633  XYY=             13.7553
  XXY=            -22.5168  XXZ=            -32.4538  XZZ=             -8.3575  YZZ=            -55.8310
  YYZ=             -0.5918  XYZ=             14.6916
 Hexadecapole moment (field-independent basis, Debye-Ang**3):
 XXXX=         -17345.4867 YYYY=          -7608.5881 ZZZZ=          -6840.5831 XXXY=           -110.4962
 XXXZ=            -52.7693 YYYX=             16.6684 YYYZ=             39.5185 ZZZX=            333.0336
 ZZZY=             35.9163 XXYY=          -3960.2464 XXZZ=          -3897.1034 YYZZ=          -2271.2868
 XXYZ=             25.1392 YYXZ=           -211.7106 ZZXY=              9.7510
 N-N= 5.466761931663D+03 E-N=-1.546757323762D+04  KE= 1.793659913862D+03
 1\1\GINC-COMP14\SP\RBP86\Gen\C38H28O2P2Ru1Zn1\STUART\11-Apr-2020\0\\# 
 gen bp86 int=ultrafine pseudo=read empiricaldispersion=gd3bj\\Ru (PPh3
 )3 H4 from high temp MD\\0,1\Ru,0,0.0112,-0.5069,-0.30177\Zn,0,0.12405
 ,2.17559,-0.04406\P,0,2.34087,-0.21881,-0.06703\P,0,-2.33061,-0.19198,
 -0.03709\O,0,0.07464,-3.54971,0.02596\O,0,-0.02443,0.52358,-3.14463\C,
 0,0.05476,-2.37033,0.08552\C,0,-0.01811,0.2655,-1.98669\C,0,2.01669,2.
 54377,-0.47214\C,0,2.95006,1.47636,-0.55561\C,0,4.28788,1.68966,-0.944
 37\H,0,4.98761,0.84945,-1.00953\C,0,4.72171,2.98547,-1.26717\H,0,5.756
 59,3.15059,-1.58574\C,0,3.82452,4.06135,-1.18318\H,0,4.15837,5.07431,-
 1.43578\C,0,2.49469,3.83889,-0.78305\H,0,1.81443,4.69794,-0.72989\C,0,
 -1.67815,2.48398,0.69167\C,0,-1.99734,3.72813,1.29023\H,0,-1.24667,4.5
 283,1.3066\C,0,-3.25054,3.97738,1.87435\H,0,-3.46292,4.95422,2.32378\C
 ,0,-4.2254,2.96743,1.89352\H,0,-5.20148,3.14654,2.35723\C,0,-3.94053,1
 .71718,1.3244\H,0,-4.69247,0.92108,1.36299\C,0,-2.68695,1.48156,0.7175
 2\C,0,2.77162,-0.33874,1.74778\C,0,3.25996,0.76906,2.47088\H,0,3.43299
 ,1.72022,1.9588\C,0,3.52596,0.65436,3.84598\H,0,3.90323,1.52238,4.3969
 9\C,0,3.31343,-0.56389,4.50908\H,0,3.52233,-0.65054,5.58054\C,0,2.8312
 ,-1.67328,3.79295\H,0,2.66474,-2.62817,4.30267\C,0,2.55334,-1.56172,2.
 42296\H,0,2.16948,-2.42759,1.87426\C,0,3.49901,-1.42389,-0.88224\C,0,4
 .74442,-1.77576,-0.32021\H,0,5.04608,-1.35936,0.64653\C,0,5.59253,-2.6
 7102,-0.99199\H,0,6.5559,-2.94272,-0.54747\C,0,5.20517,-3.2192,-2.2256
 7\H,0,5.86661,-3.9203,-2.74541\C,0,3.96429,-2.87503,-2.78664\H,0,3.653
 34,-3.30784,-3.74311\C,0,3.1107,-1.98476,-2.11725\H,0,2.1342,-1.72971,
 -2.54235\C,0,-3.35026,-0.27907,-1.59297\C,0,-4.28923,0.70784,-1.95219\
 H,0,-4.45118,1.57217,-1.30093\C,0,-5.01283,0.58823,-3.15112\H,0,-5.735
 52,1.36395,-3.42581\C,0,-4.80922,-0.51545,-3.99341\H,0,-5.37315,-0.604
 46,-4.92786\C,0,-3.87169,-1.5011,-3.64015\H,0,-3.70005,-2.35923,-4.298
 32\C,0,-3.13909,-1.38107,-2.45075\H,0,-2.38959,-2.13604,-2.18883\C,0,-
 3.21803,-1.36291,1.11607\C,0,-4.50848,-1.86452,0.85317\H,0,-5.02337,-1
 .59038,-0.07306\C,0,-5.13291,-2.72464,1.77303\H,0,-6.13306,-3.11472,1.
 55601\C,0,-4.47859,-3.08428,2.96111\H,0,-4.96615,-3.75649,3.67493\C,0,
 -3.19182,-2.58599,3.22846\H,0,-2.67235,-2.86869,4.15011\C,0,-2.56246,-
 1.735,2.30883\H,0,-1.54992,-1.36513,2.50906\\Version=EM64L-G09RevD.01\
 State=1-A\HF=-1951.1038315\RMSD=7.084e-09\Dipole=0.0056142,0.0854739,1
 .0239612\Quadrupole=14.4364189,-8.3822199,-6.054199,-1.3114534,2.99756
 03,2.5376236\PG=C01 [X(C38H28O2P2Ru1Zn1)]\\@


 A people that values its privileges above its principles soon loses both.
 -- Dwight D. Eisenhower
 Job cpu time:       0 days  1 hours 19 minutes 35.3 seconds.
 File lengths (MBytes):  RWF=    329 Int=      0 D2E=      0 Chk=     23 Scr=      1
 Normal termination of Gaussian 09 at Sat Apr 11 14:24:41 2020.
