 Entering Gaussian System, Link 0=g09
 Input=ru_znphos_co3.com
 Output=ru_znphos_co3.log
 Initial command:
 /home/programs/G09_D/g09/l1.exe "/state/partition1/stuart_2020-04-03-1040_23249/Gau-10331.inp" -scrdir="/state/partition1/stuart_2020-04-03-1040_23249/"
 Entering Link 1 = /home/programs/G09_D/g09/l1.exe PID=     10332.
  
 Copyright (c) 1988,1990,1992,1993,1995,1998,2003,2009,2013,
            Gaussian, Inc.  All Rights Reserved.
  
 This is part of the Gaussian(R) 09 program.  It is based on
 the Gaussian(R) 03 system (copyright 2003, Gaussian, Inc.),
 the Gaussian(R) 98 system (copyright 1998, Gaussian, Inc.),
 the Gaussian(R) 94 system (copyright 1995, Gaussian, Inc.),
 the Gaussian 92(TM) system (copyright 1992, Gaussian, Inc.),
 the Gaussian 90(TM) system (copyright 1990, Gaussian, Inc.),
 the Gaussian 88(TM) system (copyright 1988, Gaussian, Inc.),
 the Gaussian 86(TM) system (copyright 1986, Carnegie Mellon
 University), and the Gaussian 82(TM) system (copyright 1983,
 Carnegie Mellon University). Gaussian is a federally registered
 trademark of Gaussian, Inc.
  
 This software contains proprietary and confidential information,
 including trade secrets, belonging to Gaussian, Inc.
  
 This software is provided under written license and may be
 used, copied, transmitted, or stored only in accord with that
 written license.
  
 The following legend is applicable only to US Government
 contracts under FAR:
  
                    RESTRICTED RIGHTS LEGEND
  
 Use, reproduction and disclosure by the US Government is
 subject to restrictions as set forth in subparagraphs (a)
 and (c) of the Commercial Computer Software - Restricted
 Rights clause in FAR 52.227-19.
  
 Gaussian, Inc.
 340 Quinnipiac St., Bldg. 40, Wallingford CT 06492
  
  
 ---------------------------------------------------------------
 Warning -- This program may not be used in any manner that
 competes with the business of Gaussian, Inc. or will provide
 assistance to any competitor of Gaussian, Inc.  The licensee
 of this program is prohibited from giving any competitor of
 Gaussian, Inc. access to this program.  By using this program,
 the user acknowledges that Gaussian, Inc. is engaged in the
 business of creating and licensing software in the field of
 computational chemistry and represents and warrants to the
 licensee that it is not a competitor of Gaussian, Inc. and that
 it will not use this program in any manner prohibited above.
 ---------------------------------------------------------------
  

 Cite this work as:
 Gaussian 09, Revision D.01,
 M. J. Frisch, G. W. Trucks, H. B. Schlegel, G. E. Scuseria, 
 M. A. Robb, J. R. Cheeseman, G. Scalmani, V. Barone, B. Mennucci, 
 G. A. Petersson, H. Nakatsuji, M. Caricato, X. Li, H. P. Hratchian, 
 A. F. Izmaylov, J. Bloino, G. Zheng, J. L. Sonnenberg, M. Hada, 
 M. Ehara, K. Toyota, R. Fukuda, J. Hasegawa, M. Ishida, T. Nakajima, 
 Y. Honda, O. Kitao, H. Nakai, T. Vreven, J. A. Montgomery, Jr., 
 J. E. Peralta, F. Ogliaro, M. Bearpark, J. J. Heyd, E. Brothers, 
 K. N. Kudin, V. N. Staroverov, T. Keith, R. Kobayashi, J. Normand, 
 K. Raghavachari, A. Rendell, J. C. Burant, S. S. Iyengar, J. Tomasi, 
 M. Cossi, N. Rega, J. M. Millam, M. Klene, J. E. Knox, J. B. Cross, 
 V. Bakken, C. Adamo, J. Jaramillo, R. Gomperts, R. E. Stratmann, 
 O. Yazyev, A. J. Austin, R. Cammi, C. Pomelli, J. W. Ochterski, 
 R. L. Martin, K. Morokuma, V. G. Zakrzewski, G. A. Voth, 
 P. Salvador, J. J. Dannenberg, S. Dapprich, A. D. Daniels, 
 O. Farkas, J. B. Foresman, J. V. Ortiz, J. Cioslowski, 
 and D. J. Fox, Gaussian, Inc., Wallingford CT, 2013.
 
 ******************************************
 Gaussian 09:  EM64L-G09RevD.01 24-Apr-2013
                 3-Apr-2020 
 ******************************************
 %nproc=8
 Will use up to    8 processors via shared memory.
 %mem=14Gb
 %chk=ru_znphos_co3.chk
 ----------------------------------------------------------------------
 #p bp86 opt IOp(1/19=11) gen pseudo=read int=(grid=ultrafine) freq=nor
 aman
 ----------------------------------------------------------------------
 1/14=-1,18=20,19=11,26=4,38=1/1,3;
 2/9=110,12=2,17=6,18=5,40=1/2;
 3/5=7,11=2,16=1,17=8,25=1,30=1,71=1,74=404,75=-5/1,2,3;
 4//1;
 5/5=2,38=5/2;
 6/7=2,8=2,9=2,10=2,28=1/1;
 7//1,2,3,16;
 1/14=-1,18=20,19=11,26=4/3(2);
 2/9=110/2;
 99//99;
 2/9=110/2;
 3/5=7,6=1,11=2,16=1,17=8,25=1,30=1,71=1,74=404,75=-5,82=7/1,2,3;
 4/5=5,16=3,69=1/1;
 5/5=2,38=5/2;
 7//1,2,3,16;
 1/14=-1,18=20,19=11,26=4/3(-5);
 2/9=110/2;
 6/7=2,8=2,9=2,10=2,19=2,28=1/1;
 99/9=1/99;
 Leave Link    1 at Fri Apr  3 10:51:38 2020, MaxMem=  1879048192 cpu:         0.4
 (Enter /home/programs/G09_D/g09/l101.exe)
 ---
 Rab
 ---
 Symbolic Z-matrix:
 Charge =  0 Multiplicity = 1
 Ru                    5.4123    5.06998   4.55352 
 Zn                    6.67281   2.95891   5.63905 
 P                     6.5945    6.13457   6.2877 
 P                     4.55176   3.33388   3.21596 
 O                     4.01148   7.49068   3.27752 
 O                     8.02468   4.80775   2.96093 
 O                     3.51066   4.12162   6.76556 
 C                     4.53574   6.6109    3.73832 
 C                     7.05525   4.92477   3.55242 
 C                     4.20594   4.48298   5.93189 
 C                     7.21642   3.67103   7.41051 
 C                     6.97174   5.02707   7.69807 
 C                     7.1182    5.54216   8.99061 
 H                     6.92845   6.43625   9.15981 
 C                     7.54447   4.71629   10.01687 
 H                     7.6229    5.05028   10.88167 
 C                     7.85312   3.39534   9.75657 
 H                     8.16855   2.8471    10.43845 
 C                     7.68987   2.88639   8.47124 
 H                     7.90354   1.99653   8.31031 
 C                     6.51286   1.60469   4.19684 
 C                     7.26827   0.42806   4.11013 
 H                     7.80869   0.18839   4.8279 
 C                     7.24064  -0.39286   2.99083 
 H                     7.77542  -1.15286   2.9583 
 C                     6.41811  -0.08148   1.92887 
 H                     6.40038  -0.6291    1.17839 
 C                     5.61751   1.05174   1.98111 
 H                     5.04832   1.25466   1.27337 
 C                     5.67171   1.88356   3.1004 
 C                     8.25776   6.74516   5.81229 
 C                     9.41353   6.23761   6.38566 
 H                     9.35844   5.58023   7.04046 
 C                     10.66065   6.71443   5.97868 
 H                     11.43339   6.37048   6.36332 
 C                     10.7558   7.68832   5.01327 
 H                     11.5889   8.00424   4.74875 
 C                     9.60539   8.1949    4.43604 
 H                     9.66496   8.85538   3.78493 
 C                     8.35838   7.71739   4.82702 
 H                     7.58936   8.05314   4.42689 
 C                     5.81651   7.64422   6.98312 
 C                     6.56949   8.643     7.58833 
 H                     7.49067   8.54293   7.66835 
 C                     5.95319   9.79097   8.07428 
 H                     6.46368   10.45745   8.4774 
 C                     4.58212   9.94465   7.95996 
 H                     4.17123   10.71556   8.27865 
 C                     3.82959   8.95638   7.37516 
 H                     2.90732   9.0574    7.3078 
 C                     4.43395   7.80854   6.88533 
 H                     3.91519   7.14506   6.48996 
 C                     3.00765   2.63085   3.9047 
 C                     2.98228   1.38025   4.50516 
 H                     3.73524   0.83581   4.47614 
 C                     1.83383   0.94165   5.15011 
 H                     1.8185    0.10059   5.54724 
 C                     0.70915   1.75373   5.20375 
 H                    -0.05287   1.46496   5.65277 
 C                     0.72303   2.97914   4.59398 
 H                    -0.03939   3.51181   4.61508 
 C                     1.85991   3.4343    3.94551 
 H                     1.86199   4.27078   3.5387 
 C                     4.09164   3.75083   1.49146 
 C                     3.06938   3.07076   0.82224 
 H                     2.58919   2.40633   1.2593 
 C                     2.77321   3.39114  -0.49827 
 H                     2.07761   2.95417  -0.93392 
 C                     3.5002    4.34569  -1.16327 
 H                     3.31161   4.53702  -2.05427 
 C                     4.51473   5.02545  -0.51287 
 H                     5.00514   5.67184  -0.96558 
 C                     4.80022   4.74282   0.81485 
 H                     5.46853   5.21815   1.25578 
 
 NAtoms=     74 NQM=       74 NQMF=       0 NMMI=      0 NMMIF=      0
                NMic=       0 NMicF=      0.
                    Isotopes and Nuclear Properties:
 (Nuclear quadrupole moments (NQMom) in fm**2, nuclear magnetic moments (NMagM)
  in nuclear magnetons)

  Atom         1           2           3           4           5           6           7           8           9          10
 IAtWgt=         102          64          31          31          16          16          16          12          12          12
 AtmWgt= 101.9037000  63.9291454  30.9737634  30.9737634  15.9949146  15.9949146  15.9949146  12.0000000  12.0000000  12.0000000
 NucSpn=           0           0           1           1           0           0           0           0           0           0
 AtZEff=   0.0000000   0.0000000   0.0000000   0.0000000   0.0000000   0.0000000   0.0000000   0.0000000   0.0000000   0.0000000
 NQMom=    0.0000000   0.0000000   0.0000000   0.0000000   0.0000000   0.0000000   0.0000000   0.0000000   0.0000000   0.0000000
 NMagM=    0.0000000   0.0000000   1.1316000   1.1316000   0.0000000   0.0000000   0.0000000   0.0000000   0.0000000   0.0000000
 AtZNuc=  44.0000000  30.0000000  15.0000000  15.0000000   8.0000000   8.0000000   8.0000000   6.0000000   6.0000000   6.0000000

  Atom        11          12          13          14          15          16          17          18          19          20
 IAtWgt=          12          12          12           1          12           1          12           1          12           1
 AtmWgt=  12.0000000  12.0000000  12.0000000   1.0078250  12.0000000   1.0078250  12.0000000   1.0078250  12.0000000   1.0078250
 NucSpn=           0           0           0           1           0           1           0           1           0           1
 AtZEff=   0.0000000   0.0000000   0.0000000   0.0000000   0.0000000   0.0000000   0.0000000   0.0000000   0.0000000   0.0000000
 NQMom=    0.0000000   0.0000000   0.0000000   0.0000000   0.0000000   0.0000000   0.0000000   0.0000000   0.0000000   0.0000000
 NMagM=    0.0000000   0.0000000   0.0000000   2.7928460   0.0000000   2.7928460   0.0000000   2.7928460   0.0000000   2.7928460
 AtZNuc=   6.0000000   6.0000000   6.0000000   1.0000000   6.0000000   1.0000000   6.0000000   1.0000000   6.0000000   1.0000000

  Atom        21          22          23          24          25          26          27          28          29          30
 IAtWgt=          12          12           1          12           1          12           1          12           1          12
 AtmWgt=  12.0000000  12.0000000   1.0078250  12.0000000   1.0078250  12.0000000   1.0078250  12.0000000   1.0078250  12.0000000
 NucSpn=           0           0           1           0           1           0           1           0           1           0
 AtZEff=   0.0000000   0.0000000   0.0000000   0.0000000   0.0000000   0.0000000   0.0000000   0.0000000   0.0000000   0.0000000
 NQMom=    0.0000000   0.0000000   0.0000000   0.0000000   0.0000000   0.0000000   0.0000000   0.0000000   0.0000000   0.0000000
 NMagM=    0.0000000   0.0000000   2.7928460   0.0000000   2.7928460   0.0000000   2.7928460   0.0000000   2.7928460   0.0000000
 AtZNuc=   6.0000000   6.0000000   1.0000000   6.0000000   1.0000000   6.0000000   1.0000000   6.0000000   1.0000000   6.0000000

  Atom        31          32          33          34          35          36          37          38          39          40
 IAtWgt=          12          12           1          12           1          12           1          12           1          12
 AtmWgt=  12.0000000  12.0000000   1.0078250  12.0000000   1.0078250  12.0000000   1.0078250  12.0000000   1.0078250  12.0000000
 NucSpn=           0           0           1           0           1           0           1           0           1           0
 AtZEff=   0.0000000   0.0000000   0.0000000   0.0000000   0.0000000   0.0000000   0.0000000   0.0000000   0.0000000   0.0000000
 NQMom=    0.0000000   0.0000000   0.0000000   0.0000000   0.0000000   0.0000000   0.0000000   0.0000000   0.0000000   0.0000000
 NMagM=    0.0000000   0.0000000   2.7928460   0.0000000   2.7928460   0.0000000   2.7928460   0.0000000   2.7928460   0.0000000
 AtZNuc=   6.0000000   6.0000000   1.0000000   6.0000000   1.0000000   6.0000000   1.0000000   6.0000000   1.0000000   6.0000000

  Atom        41          42          43          44          45          46          47          48          49          50
 IAtWgt=           1          12          12           1          12           1          12           1          12           1
 AtmWgt=   1.0078250  12.0000000  12.0000000   1.0078250  12.0000000   1.0078250  12.0000000   1.0078250  12.0000000   1.0078250
 NucSpn=           1           0           0           1           0           1           0           1           0           1
 AtZEff=   0.0000000   0.0000000   0.0000000   0.0000000   0.0000000   0.0000000   0.0000000   0.0000000   0.0000000   0.0000000
 NQMom=    0.0000000   0.0000000   0.0000000   0.0000000   0.0000000   0.0000000   0.0000000   0.0000000   0.0000000   0.0000000
 NMagM=    2.7928460   0.0000000   0.0000000   2.7928460   0.0000000   2.7928460   0.0000000   2.7928460   0.0000000   2.7928460
 AtZNuc=   1.0000000   6.0000000   6.0000000   1.0000000   6.0000000   1.0000000   6.0000000   1.0000000   6.0000000   1.0000000

  Atom        51          52          53          54          55          56          57          58          59          60
 IAtWgt=          12           1          12          12           1          12           1          12           1          12
 AtmWgt=  12.0000000   1.0078250  12.0000000  12.0000000   1.0078250  12.0000000   1.0078250  12.0000000   1.0078250  12.0000000
 NucSpn=           0           1           0           0           1           0           1           0           1           0
 AtZEff=   0.0000000   0.0000000   0.0000000   0.0000000   0.0000000   0.0000000   0.0000000   0.0000000   0.0000000   0.0000000
 NQMom=    0.0000000   0.0000000   0.0000000   0.0000000   0.0000000   0.0000000   0.0000000   0.0000000   0.0000000   0.0000000
 NMagM=    0.0000000   2.7928460   0.0000000   0.0000000   2.7928460   0.0000000   2.7928460   0.0000000   2.7928460   0.0000000
 AtZNuc=   6.0000000   1.0000000   6.0000000   6.0000000   1.0000000   6.0000000   1.0000000   6.0000000   1.0000000   6.0000000

  Atom        61          62          63          64          65          66          67          68          69          70
 IAtWgt=           1          12           1          12          12           1          12           1          12           1
 AtmWgt=   1.0078250  12.0000000   1.0078250  12.0000000  12.0000000   1.0078250  12.0000000   1.0078250  12.0000000   1.0078250
 NucSpn=           1           0           1           0           0           1           0           1           0           1
 AtZEff=   0.0000000   0.0000000   0.0000000   0.0000000   0.0000000   0.0000000   0.0000000   0.0000000   0.0000000   0.0000000
 NQMom=    0.0000000   0.0000000   0.0000000   0.0000000   0.0000000   0.0000000   0.0000000   0.0000000   0.0000000   0.0000000
 NMagM=    2.7928460   0.0000000   2.7928460   0.0000000   0.0000000   2.7928460   0.0000000   2.7928460   0.0000000   2.7928460
 AtZNuc=   1.0000000   6.0000000   1.0000000   6.0000000   6.0000000   1.0000000   6.0000000   1.0000000   6.0000000   1.0000000

  Atom        71          72          73          74
 IAtWgt=          12           1          12           1
 AtmWgt=  12.0000000   1.0078250  12.0000000   1.0078250
 NucSpn=           0           1           0           1
 AtZEff=   0.0000000   0.0000000   0.0000000   0.0000000
 NQMom=    0.0000000   0.0000000   0.0000000   0.0000000
 NMagM=    0.0000000   2.7928460   0.0000000   2.7928460
 AtZNuc=   6.0000000   1.0000000   6.0000000   1.0000000
 Leave Link  101 at Fri Apr  3 10:51:39 2020, MaxMem=  1879048192 cpu:         2.7
 (Enter /home/programs/G09_D/g09/l103.exe)

 GradGradGradGradGradGradGradGradGradGradGradGradGradGradGradGradGradGrad
 Berny optimization.
 Initialization pass.
                           ----------------------------
                           !    Initial Parameters    !
                           ! (Angstroms and Degrees)  !
 --------------------------                            --------------------------
 ! Name  Definition              Value          Derivative Info.                !
 --------------------------------------------------------------------------------
 ! R1    R(1,2)                  2.6877         estimate D2E/DX2                !
 ! R2    R(1,3)                  2.3534         estimate D2E/DX2                !
 ! R3    R(1,4)                  2.3545         estimate D2E/DX2                !
 ! R4    R(1,8)                  1.9512         estimate D2E/DX2                !
 ! R5    R(1,9)                  1.9294         estimate D2E/DX2                !
 ! R6    R(1,10)                 1.9235         estimate D2E/DX2                !
 ! R7    R(2,11)                 1.9851         estimate D2E/DX2                !
 ! R8    R(2,21)                 1.9848         estimate D2E/DX2                !
 ! R9    R(3,12)                 1.8325         estimate D2E/DX2                !
 ! R10   R(3,31)                 1.8345         estimate D2E/DX2                !
 ! R11   R(3,42)                 1.8352         estimate D2E/DX2                !
 ! R12   R(4,30)                 1.8361         estimate D2E/DX2                !
 ! R13   R(4,53)                 1.8311         estimate D2E/DX2                !
 ! R14   R(4,64)                 1.8329         estimate D2E/DX2                !
 ! R15   R(5,8)                  1.123          estimate D2E/DX2                !
 ! R16   R(6,9)                  1.1416         estimate D2E/DX2                !
 ! R17   R(7,10)                 1.1441         estimate D2E/DX2                !
 ! R18   R(11,12)                1.4076         estimate D2E/DX2                !
 ! R19   R(11,19)                1.4018         estimate D2E/DX2                !
 ! R20   R(12,13)                1.3991         estimate D2E/DX2                !
 ! R21   R(13,14)                0.9295         estimate D2E/DX2                !
 ! R22   R(13,15)                1.3845         estimate D2E/DX2                !
 ! R23   R(15,16)                0.9304         estimate D2E/DX2                !
 ! R24   R(15,17)                1.3813         estimate D2E/DX2                !
 ! R25   R(17,18)                0.9301         estimate D2E/DX2                !
 ! R26   R(17,19)                1.392          estimate D2E/DX2                !
 ! R27   R(19,20)                0.9292         estimate D2E/DX2                !
 ! R28   R(21,22)                1.4009         estimate D2E/DX2                !
 ! R29   R(21,30)                1.4098         estimate D2E/DX2                !
 ! R30   R(22,23)                0.9299         estimate D2E/DX2                !
 ! R31   R(22,24)                1.3883         estimate D2E/DX2                !
 ! R32   R(24,25)                0.9299         estimate D2E/DX2                !
 ! R33   R(24,26)                1.3789         estimate D2E/DX2                !
 ! R34   R(26,27)                0.9292         estimate D2E/DX2                !
 ! R35   R(26,28)                1.3885         estimate D2E/DX2                !
 ! R36   R(28,29)                0.9306         estimate D2E/DX2                !
 ! R37   R(28,30)                1.3956         estimate D2E/DX2                !
 ! R38   R(31,32)                1.3864         estimate D2E/DX2                !
 ! R39   R(31,40)                1.3879         estimate D2E/DX2                !
 ! R40   R(32,33)                0.9295         estimate D2E/DX2                !
 ! R41   R(32,34)                1.3958         estimate D2E/DX2                !
 ! R42   R(34,35)                0.9292         estimate D2E/DX2                !
 ! R43   R(34,36)                1.3746         estimate D2E/DX2                !
 ! R44   R(36,37)                0.9294         estimate D2E/DX2                !
 ! R45   R(36,38)                1.3832         estimate D2E/DX2                !
 ! R46   R(38,39)                0.9294         estimate D2E/DX2                !
 ! R47   R(38,40)                1.3914         estimate D2E/DX2                !
 ! R48   R(40,41)                0.9296         estimate D2E/DX2                !
 ! R49   R(42,43)                1.3895         estimate D2E/DX2                !
 ! R50   R(42,51)                1.3957         estimate D2E/DX2                !
 ! R51   R(43,44)                0.93           estimate D2E/DX2                !
 ! R52   R(43,45)                1.3906         estimate D2E/DX2                !
 ! R53   R(45,46)                0.9313         estimate D2E/DX2                !
 ! R54   R(45,47)                1.3844         estimate D2E/DX2                !
 ! R55   R(47,48)                0.9299         estimate D2E/DX2                !
 ! R56   R(47,49)                1.3729         estimate D2E/DX2                !
 ! R57   R(49,50)                0.9302         estimate D2E/DX2                !
 ! R58   R(49,51)                1.3866         estimate D2E/DX2                !
 ! R59   R(51,52)                0.9304         estimate D2E/DX2                !
 ! R60   R(53,54)                1.3875         estimate D2E/DX2                !
 ! R61   R(53,62)                1.4016         estimate D2E/DX2                !
 ! R62   R(54,55)                0.9296         estimate D2E/DX2                !
 ! R63   R(54,56)                1.3883         estimate D2E/DX2                !
 ! R64   R(56,57)                0.9302         estimate D2E/DX2                !
 ! R65   R(56,58)                1.3883         estimate D2E/DX2                !
 ! R66   R(58,59)                0.9304         estimate D2E/DX2                !
 ! R67   R(58,60)                1.3688         estimate D2E/DX2                !
 ! R68   R(60,61)                0.9303         estimate D2E/DX2                !
 ! R69   R(60,62)                1.3857         estimate D2E/DX2                !
 ! R70   R(62,63)                0.9302         estimate D2E/DX2                !
 ! R71   R(64,65)                1.3983         estimate D2E/DX2                !
 ! R72   R(64,73)                1.3942         estimate D2E/DX2                !
 ! R73   R(65,66)                0.929          estimate D2E/DX2                !
 ! R74   R(65,67)                1.3907         estimate D2E/DX2                !
 ! R75   R(67,68)                0.9298         estimate D2E/DX2                !
 ! R76   R(67,69)                1.3718         estimate D2E/DX2                !
 ! R77   R(69,70)                0.9306         estimate D2E/DX2                !
 ! R78   R(69,71)                1.3836         estimate D2E/DX2                !
 ! R79   R(71,72)                0.9291         estimate D2E/DX2                !
 ! R80   R(71,73)                1.3872         estimate D2E/DX2                !
 ! R81   R(73,74)                0.9311         estimate D2E/DX2                !
 ! A1    A(2,1,3)               79.7526         estimate D2E/DX2                !
 ! A2    A(2,1,4)               79.729          estimate D2E/DX2                !
 ! A3    A(2,1,9)               75.587          estimate D2E/DX2                !
 ! A4    A(2,1,10)              76.4093         estimate D2E/DX2                !
 ! A5    A(3,1,4)              159.3544         estimate D2E/DX2                !
 ! A6    A(3,1,8)              100.1537         estimate D2E/DX2                !
 ! A7    A(3,1,9)               89.3486         estimate D2E/DX2                !
 ! A8    A(3,1,10)              85.7018         estimate D2E/DX2                !
 ! A9    A(4,1,8)              100.4147         estimate D2E/DX2                !
 ! A10   A(4,1,9)               87.7629         estimate D2E/DX2                !
 ! A11   A(4,1,10)              87.2974         estimate D2E/DX2                !
 ! A12   A(8,1,9)              103.0143         estimate D2E/DX2                !
 ! A13   A(8,1,10)             104.9893         estimate D2E/DX2                !
 ! A14   A(9,1,10)             151.9963         estimate D2E/DX2                !
 ! A15   A(1,2,11)             101.951          estimate D2E/DX2                !
 ! A16   A(1,2,21)             101.8083         estimate D2E/DX2                !
 ! A17   A(11,2,21)            156.2407         estimate D2E/DX2                !
 ! A18   A(1,3,12)             113.4011         estimate D2E/DX2                !
 ! A19   A(1,3,31)             114.5235         estimate D2E/DX2                !
 ! A20   A(1,3,42)             116.0022         estimate D2E/DX2                !
 ! A21   A(12,3,31)            102.3548         estimate D2E/DX2                !
 ! A22   A(12,3,42)            107.0244         estimate D2E/DX2                !
 ! A23   A(31,3,42)            102.0499         estimate D2E/DX2                !
 ! A24   A(1,4,30)             113.2823         estimate D2E/DX2                !
 ! A25   A(1,4,53)             112.1867         estimate D2E/DX2                !
 ! A26   A(1,4,64)             117.2912         estimate D2E/DX2                !
 ! A27   A(30,4,53)            103.578          estimate D2E/DX2                !
 ! A28   A(30,4,64)            105.8789         estimate D2E/DX2                !
 ! A29   A(53,4,64)            103.2702         estimate D2E/DX2                !
 ! A30   A(2,11,12)            118.7042         estimate D2E/DX2                !
 ! A31   A(2,11,19)            124.5378         estimate D2E/DX2                !
 ! A32   A(12,11,19)           116.3184         estimate D2E/DX2                !
 ! A33   A(3,12,11)            117.4369         estimate D2E/DX2                !
 ! A34   A(3,12,13)            120.6696         estimate D2E/DX2                !
 ! A35   A(11,12,13)           121.6822         estimate D2E/DX2                !
 ! A36   A(12,13,14)           120.0607         estimate D2E/DX2                !
 ! A37   A(12,13,15)           119.8282         estimate D2E/DX2                !
 ! A38   A(14,13,15)           120.111          estimate D2E/DX2                !
 ! A39   A(13,15,16)           120.0535         estimate D2E/DX2                !
 ! A40   A(13,15,17)           119.9703         estimate D2E/DX2                !
 ! A41   A(16,15,17)           119.9762         estimate D2E/DX2                !
 ! A42   A(15,17,18)           120.0884         estimate D2E/DX2                !
 ! A43   A(15,17,19)           119.8312         estimate D2E/DX2                !
 ! A44   A(18,17,19)           120.0804         estimate D2E/DX2                !
 ! A45   A(11,19,17)           122.2531         estimate D2E/DX2                !
 ! A46   A(11,19,20)           118.8596         estimate D2E/DX2                !
 ! A47   A(17,19,20)           118.8873         estimate D2E/DX2                !
 ! A48   A(2,21,22)            125.0691         estimate D2E/DX2                !
 ! A49   A(2,21,30)            118.5708         estimate D2E/DX2                !
 ! A50   A(22,21,30)           116.0866         estimate D2E/DX2                !
 ! A51   A(21,22,23)           118.8213         estimate D2E/DX2                !
 ! A52   A(21,22,24)           122.3973         estimate D2E/DX2                !
 ! A53   A(23,22,24)           118.7814         estimate D2E/DX2                !
 ! A54   A(22,24,25)           120.0028         estimate D2E/DX2                !
 ! A55   A(22,24,26)           119.9514         estimate D2E/DX2                !
 ! A56   A(25,24,26)           120.0458         estimate D2E/DX2                !
 ! A57   A(24,26,27)           120.0223         estimate D2E/DX2                !
 ! A58   A(24,26,28)           119.953          estimate D2E/DX2                !
 ! A59   A(27,26,28)           120.0247         estimate D2E/DX2                !
 ! A60   A(26,28,29)           120.1335         estimate D2E/DX2                !
 ! A61   A(26,28,30)           119.6193         estimate D2E/DX2                !
 ! A62   A(29,28,30)           120.2472         estimate D2E/DX2                !
 ! A63   A(4,30,21)            118.1155         estimate D2E/DX2                !
 ! A64   A(4,30,28)            119.8413         estimate D2E/DX2                !
 ! A65   A(21,30,28)           121.9403         estimate D2E/DX2                !
 ! A66   A(3,31,32)            121.7906         estimate D2E/DX2                !
 ! A67   A(3,31,40)            118.8736         estimate D2E/DX2                !
 ! A68   A(32,31,40)           119.315          estimate D2E/DX2                !
 ! A69   A(31,32,33)           120.0553         estimate D2E/DX2                !
 ! A70   A(31,32,34)           119.9467         estimate D2E/DX2                !
 ! A71   A(33,32,34)           119.998          estimate D2E/DX2                !
 ! A72   A(32,34,35)           119.7288         estimate D2E/DX2                !
 ! A73   A(32,34,36)           120.5738         estimate D2E/DX2                !
 ! A74   A(35,34,36)           119.6974         estimate D2E/DX2                !
 ! A75   A(34,36,37)           120.1827         estimate D2E/DX2                !
 ! A76   A(34,36,38)           119.6694         estimate D2E/DX2                !
 ! A77   A(37,36,38)           120.1479         estimate D2E/DX2                !
 ! A78   A(36,38,39)           119.9562         estimate D2E/DX2                !
 ! A79   A(36,38,40)           120.162          estimate D2E/DX2                !
 ! A80   A(39,38,40)           119.8817         estimate D2E/DX2                !
 ! A81   A(31,40,38)           120.3237         estimate D2E/DX2                !
 ! A82   A(31,40,41)           119.9069         estimate D2E/DX2                !
 ! A83   A(38,40,41)           119.7692         estimate D2E/DX2                !
 ! A84   A(3,42,43)            121.7763         estimate D2E/DX2                !
 ! A85   A(3,42,51)            119.3554         estimate D2E/DX2                !
 ! A86   A(43,42,51)           118.8604         estimate D2E/DX2                !
 ! A87   A(42,43,44)           119.7932         estimate D2E/DX2                !
 ! A88   A(42,43,45)           120.3584         estimate D2E/DX2                !
 ! A89   A(44,43,45)           119.8484         estimate D2E/DX2                !
 ! A90   A(43,45,46)           119.9413         estimate D2E/DX2                !
 ! A91   A(43,45,47)           120.1132         estimate D2E/DX2                !
 ! A92   A(46,45,47)           119.9455         estimate D2E/DX2                !
 ! A93   A(45,47,48)           120.0893         estimate D2E/DX2                !
 ! A94   A(45,47,49)           119.8747         estimate D2E/DX2                !
 ! A95   A(48,47,49)           120.036          estimate D2E/DX2                !
 ! A96   A(47,49,50)           119.7424         estimate D2E/DX2                !
 ! A97   A(47,49,51)           120.493          estimate D2E/DX2                !
 ! A98   A(50,49,51)           119.7646         estimate D2E/DX2                !
 ! A99   A(42,51,49)           120.2948         estimate D2E/DX2                !
 ! A100  A(42,51,52)           119.8764         estimate D2E/DX2                !
 ! A101  A(49,51,52)           119.8288         estimate D2E/DX2                !
 ! A102  A(4,53,54)            121.6181         estimate D2E/DX2                !
 ! A103  A(4,53,62)            118.7765         estimate D2E/DX2                !
 ! A104  A(54,53,62)           119.2813         estimate D2E/DX2                !
 ! A105  A(53,54,55)           119.9699         estimate D2E/DX2                !
 ! A106  A(53,54,56)           120.062          estimate D2E/DX2                !
 ! A107  A(55,54,56)           119.9681         estimate D2E/DX2                !
 ! A108  A(54,56,57)           119.8428         estimate D2E/DX2                !
 ! A109  A(54,56,58)           120.2208         estimate D2E/DX2                !
 ! A110  A(57,56,58)           119.9364         estimate D2E/DX2                !
 ! A111  A(56,58,59)           120.0397         estimate D2E/DX2                !
 ! A112  A(56,58,60)           119.8846         estimate D2E/DX2                !
 ! A113  A(59,58,60)           120.0756         estimate D2E/DX2                !
 ! A114  A(58,60,61)           119.6158         estimate D2E/DX2                !
 ! A115  A(58,60,62)           120.7202         estimate D2E/DX2                !
 ! A116  A(61,60,62)           119.664          estimate D2E/DX2                !
 ! A117  A(53,62,60)           119.8125         estimate D2E/DX2                !
 ! A118  A(53,62,63)           120.0618         estimate D2E/DX2                !
 ! A119  A(60,62,63)           120.1256         estimate D2E/DX2                !
 ! A120  A(4,64,65)            121.5452         estimate D2E/DX2                !
 ! A121  A(4,64,73)            119.3972         estimate D2E/DX2                !
 ! A122  A(65,64,73)           119.0323         estimate D2E/DX2                !
 ! A123  A(64,65,66)           120.036          estimate D2E/DX2                !
 ! A124  A(64,65,67)           119.8726         estimate D2E/DX2                !
 ! A125  A(66,65,67)           120.0915         estimate D2E/DX2                !
 ! A126  A(65,67,68)           119.7309         estimate D2E/DX2                !
 ! A127  A(65,67,69)           120.512          estimate D2E/DX2                !
 ! A128  A(68,67,69)           119.7571         estimate D2E/DX2                !
 ! A129  A(67,69,70)           119.9855         estimate D2E/DX2                !
 ! A130  A(67,69,71)           120.1698         estimate D2E/DX2                !
 ! A131  A(70,69,71)           119.8446         estimate D2E/DX2                !
 ! A132  A(69,71,72)           119.9852         estimate D2E/DX2                !
 ! A133  A(69,71,73)           120.049          estimate D2E/DX2                !
 ! A134  A(72,71,73)           119.9659         estimate D2E/DX2                !
 ! A135  A(64,73,71)           120.3221         estimate D2E/DX2                !
 ! A136  A(64,73,74)           119.8791         estimate D2E/DX2                !
 ! A137  A(71,73,74)           119.7988         estimate D2E/DX2                !
 ! A138  L(2,1,8,3,-1)         179.9063         estimate D2E/DX2                !
 ! A139  L(1,8,5,37,-1)        181.0565         estimate D2E/DX2                !
 ! A140  L(1,9,6,17,-1)        179.5727         estimate D2E/DX2                !
 ! A141  L(1,10,7,11,-1)       178.5691         estimate D2E/DX2                !
 ! A142  L(2,1,8,3,-2)         178.575          estimate D2E/DX2                !
 ! A143  L(1,8,5,37,-2)        180.4933         estimate D2E/DX2                !
 ! A144  L(1,9,6,17,-2)        178.3745         estimate D2E/DX2                !
 ! A145  L(1,10,7,11,-2)       180.2238         estimate D2E/DX2                !
 ! D1    D(3,1,2,11)            17.0141         estimate D2E/DX2                !
 ! D2    D(3,1,2,21)          -162.9684         estimate D2E/DX2                !
 ! D3    D(4,1,2,11)          -160.6855         estimate D2E/DX2                !
 ! D4    D(4,1,2,21)            19.332          estimate D2E/DX2                !
 ! D5    D(9,1,2,11)           108.993          estimate D2E/DX2                !
 ! D6    D(9,1,2,21)           -70.9895         estimate D2E/DX2                !
 ! D7    D(10,1,2,11)          -71.0002         estimate D2E/DX2                !
 ! D8    D(10,1,2,21)          109.0173         estimate D2E/DX2                !
 ! D9    D(2,1,3,12)           -26.0389         estimate D2E/DX2                !
 ! D10   D(2,1,3,31)            90.942          estimate D2E/DX2                !
 ! D11   D(2,1,3,42)          -150.5135         estimate D2E/DX2                !
 ! D12   D(4,1,3,12)           -19.6073         estimate D2E/DX2                !
 ! D13   D(4,1,3,31)            97.3735         estimate D2E/DX2                !
 ! D14   D(4,1,3,42)          -144.0819         estimate D2E/DX2                !
 ! D15   D(8,1,3,12)           155.3861         estimate D2E/DX2                !
 ! D16   D(8,1,3,31)           -87.6331         estimate D2E/DX2                !
 ! D17   D(8,1,3,42)            30.9115         estimate D2E/DX2                !
 ! D18   D(9,1,3,12)          -101.5078         estimate D2E/DX2                !
 ! D19   D(9,1,3,31)            15.4731         estimate D2E/DX2                !
 ! D20   D(9,1,3,42)           134.0177         estimate D2E/DX2                !
 ! D21   D(10,1,3,12)           50.9065         estimate D2E/DX2                !
 ! D22   D(10,1,3,31)          167.8874         estimate D2E/DX2                !
 ! D23   D(10,1,3,42)          -73.5681         estimate D2E/DX2                !
 ! D24   D(2,1,4,30)           -26.2533         estimate D2E/DX2                !
 ! D25   D(2,1,4,53)            90.587          estimate D2E/DX2                !
 ! D26   D(2,1,4,64)          -150.1143         estimate D2E/DX2                !
 ! D27   D(3,1,4,30)           -32.6854         estimate D2E/DX2                !
 ! D28   D(3,1,4,53)            84.1549         estimate D2E/DX2                !
 ! D29   D(3,1,4,64)          -156.5464         estimate D2E/DX2                !
 ! D30   D(8,1,4,30)           152.3254         estimate D2E/DX2                !
 ! D31   D(8,1,4,53)           -90.8343         estimate D2E/DX2                !
 ! D32   D(8,1,4,64)            28.4643         estimate D2E/DX2                !
 ! D33   D(9,1,4,30)            49.5011         estimate D2E/DX2                !
 ! D34   D(9,1,4,53)           166.3414         estimate D2E/DX2                !
 ! D35   D(9,1,4,64)           -74.3599         estimate D2E/DX2                !
 ! D36   D(10,1,4,30)         -102.9254         estimate D2E/DX2                !
 ! D37   D(10,1,4,53)           13.9148         estimate D2E/DX2                !
 ! D38   D(10,1,4,64)          133.2135         estimate D2E/DX2                !
 ! D39   D(1,2,11,12)           -4.7658         estimate D2E/DX2                !
 ! D40   D(1,2,11,19)          167.3306         estimate D2E/DX2                !
 ! D41   D(21,2,11,12)         175.1916         estimate D2E/DX2                !
 ! D42   D(21,2,11,19)         -12.712          estimate D2E/DX2                !
 ! D43   D(1,2,21,22)          163.9731         estimate D2E/DX2                !
 ! D44   D(1,2,21,30)           -9.77           estimate D2E/DX2                !
 ! D45   D(11,2,21,22)         -15.9844         estimate D2E/DX2                !
 ! D46   D(11,2,21,30)         170.2726         estimate D2E/DX2                !
 ! D47   D(1,3,12,11)           33.1416         estimate D2E/DX2                !
 ! D48   D(1,3,12,13)         -152.0532         estimate D2E/DX2                !
 ! D49   D(31,3,12,11)         -90.7608         estimate D2E/DX2                !
 ! D50   D(31,3,12,13)          84.0444         estimate D2E/DX2                !
 ! D51   D(42,3,12,11)         162.3468         estimate D2E/DX2                !
 ! D52   D(42,3,12,13)         -22.848          estimate D2E/DX2                !
 ! D53   D(1,3,31,32)         -116.0216         estimate D2E/DX2                !
 ! D54   D(1,3,31,40)           62.3072         estimate D2E/DX2                !
 ! D55   D(12,3,31,32)           7.1279         estimate D2E/DX2                !
 ! D56   D(12,3,31,40)        -174.5433         estimate D2E/DX2                !
 ! D57   D(42,3,31,32)         117.8129         estimate D2E/DX2                !
 ! D58   D(42,3,31,40)         -63.8583         estimate D2E/DX2                !
 ! D59   D(1,3,42,43)         -154.1245         estimate D2E/DX2                !
 ! D60   D(1,3,42,51)           24.8397         estimate D2E/DX2                !
 ! D61   D(12,3,42,43)          78.1773         estimate D2E/DX2                !
 ! D62   D(12,3,42,51)        -102.8586         estimate D2E/DX2                !
 ! D63   D(31,3,42,43)         -28.9308         estimate D2E/DX2                !
 ! D64   D(31,3,42,51)         150.0334         estimate D2E/DX2                !
 ! D65   D(1,4,30,21)           30.1874         estimate D2E/DX2                !
 ! D66   D(1,4,30,28)         -153.4294         estimate D2E/DX2                !
 ! D67   D(53,4,30,21)         -91.6054         estimate D2E/DX2                !
 ! D68   D(53,4,30,28)          84.7778         estimate D2E/DX2                !
 ! D69   D(64,4,30,21)         160.0812         estimate D2E/DX2                !
 ! D70   D(64,4,30,28)         -23.5356         estimate D2E/DX2                !
 ! D71   D(1,4,53,54)         -106.7666         estimate D2E/DX2                !
 ! D72   D(1,4,53,62)           66.6471         estimate D2E/DX2                !
 ! D73   D(30,4,53,54)          15.7564         estimate D2E/DX2                !
 ! D74   D(30,4,53,62)        -170.8299         estimate D2E/DX2                !
 ! D75   D(64,4,53,54)         126.0087         estimate D2E/DX2                !
 ! D76   D(64,4,53,62)         -60.5777         estimate D2E/DX2                !
 ! D77   D(1,4,64,65)         -150.2876         estimate D2E/DX2                !
 ! D78   D(1,4,64,73)           31.5592         estimate D2E/DX2                !
 ! D79   D(30,4,64,65)          82.1821         estimate D2E/DX2                !
 ! D80   D(30,4,64,73)         -95.9711         estimate D2E/DX2                !
 ! D81   D(53,4,64,65)         -26.3519         estimate D2E/DX2                !
 ! D82   D(53,4,64,73)         155.495          estimate D2E/DX2                !
 ! D83   D(2,11,12,3)          -16.1635         estimate D2E/DX2                !
 ! D84   D(2,11,12,13)         169.0874         estimate D2E/DX2                !
 ! D85   D(19,11,12,3)         171.0964         estimate D2E/DX2                !
 ! D86   D(19,11,12,13)         -3.6527         estimate D2E/DX2                !
 ! D87   D(2,11,19,17)        -169.3651         estimate D2E/DX2                !
 ! D88   D(2,11,19,20)          10.754          estimate D2E/DX2                !
 ! D89   D(12,11,19,17)          2.9019         estimate D2E/DX2                !
 ! D90   D(12,11,19,20)       -176.979          estimate D2E/DX2                !
 ! D91   D(3,12,13,14)           7.0753         estimate D2E/DX2                !
 ! D92   D(3,12,13,15)        -173.0199         estimate D2E/DX2                !
 ! D93   D(11,12,13,14)       -178.3433         estimate D2E/DX2                !
 ! D94   D(11,12,13,15)          1.5615         estimate D2E/DX2                !
 ! D95   D(12,13,15,16)       -178.4976         estimate D2E/DX2                !
 ! D96   D(12,13,15,17)          1.4824         estimate D2E/DX2                !
 ! D97   D(14,13,15,16)          1.4072         estimate D2E/DX2                !
 ! D98   D(14,13,15,17)       -178.6128         estimate D2E/DX2                !
 ! D99   D(13,15,17,18)        177.8161         estimate D2E/DX2                !
 ! D100  D(13,15,17,19)         -2.2337         estimate D2E/DX2                !
 ! D101  D(16,15,17,18)         -2.2039         estimate D2E/DX2                !
 ! D102  D(16,15,17,19)        177.7463         estimate D2E/DX2                !
 ! D103  D(15,17,19,11)         -0.0332         estimate D2E/DX2                !
 ! D104  D(15,17,19,20)        179.8476         estimate D2E/DX2                !
 ! D105  D(18,17,19,11)        179.917          estimate D2E/DX2                !
 ! D106  D(18,17,19,20)         -0.2022         estimate D2E/DX2                !
 ! D107  D(2,21,22,23)           8.692          estimate D2E/DX2                !
 ! D108  D(2,21,22,24)        -171.2401         estimate D2E/DX2                !
 ! D109  D(30,21,22,23)       -177.4258         estimate D2E/DX2                !
 ! D110  D(30,21,22,24)          2.6422         estimate D2E/DX2                !
 ! D111  D(2,21,30,4)          -10.7912         estimate D2E/DX2                !
 ! D112  D(2,21,30,28)         172.9058         estimate D2E/DX2                !
 ! D113  D(22,21,30,4)         174.9088         estimate D2E/DX2                !
 ! D114  D(22,21,30,28)         -1.3942         estimate D2E/DX2                !
 ! D115  D(21,22,24,25)        178.1347         estimate D2E/DX2                !
 ! D116  D(21,22,24,26)         -1.9743         estimate D2E/DX2                !
 ! D117  D(23,22,24,25)         -1.7974         estimate D2E/DX2                !
 ! D118  D(23,22,24,26)        178.0936         estimate D2E/DX2                !
 ! D119  D(22,24,26,27)        179.8511         estimate D2E/DX2                !
 ! D120  D(22,24,26,28)         -0.0764         estimate D2E/DX2                !
 ! D121  D(25,24,26,27)         -0.258          estimate D2E/DX2                !
 ! D122  D(25,24,26,28)        179.8145         estimate D2E/DX2                !
 ! D123  D(24,26,28,29)       -178.7236         estimate D2E/DX2                !
 ! D124  D(24,26,28,30)          1.2756         estimate D2E/DX2                !
 ! D125  D(27,26,28,29)          1.3489         estimate D2E/DX2                !
 ! D126  D(27,26,28,30)       -178.6519         estimate D2E/DX2                !
 ! D127  D(26,28,30,4)        -176.7482         estimate D2E/DX2                !
 ! D128  D(26,28,30,21)         -0.5075         estimate D2E/DX2                !
 ! D129  D(29,28,30,4)           3.251          estimate D2E/DX2                !
 ! D130  D(29,28,30,21)        179.4917         estimate D2E/DX2                !
 ! D131  D(3,31,32,33)          -1.0783         estimate D2E/DX2                !
 ! D132  D(3,31,32,34)         178.9094         estimate D2E/DX2                !
 ! D133  D(40,31,32,33)       -179.3999         estimate D2E/DX2                !
 ! D134  D(40,31,32,34)          0.5878         estimate D2E/DX2                !
 ! D135  D(3,31,40,38)        -179.5213         estimate D2E/DX2                !
 ! D136  D(3,31,40,41)           0.6028         estimate D2E/DX2                !
 ! D137  D(32,31,40,38)         -1.1503         estimate D2E/DX2                !
 ! D138  D(32,31,40,41)        178.9737         estimate D2E/DX2                !
 ! D139  D(31,32,34,35)       -179.8341         estimate D2E/DX2                !
 ! D140  D(31,32,34,36)          0.1455         estimate D2E/DX2                !
 ! D141  D(33,32,34,35)          0.1536         estimate D2E/DX2                !
 ! D142  D(33,32,34,36)       -179.8668         estimate D2E/DX2                !
 ! D143  D(32,34,36,37)        179.7594         estimate D2E/DX2                !
 ! D144  D(32,34,36,38)         -0.3182         estimate D2E/DX2                !
 ! D145  D(35,34,36,37)         -0.261          estimate D2E/DX2                !
 ! D146  D(35,34,36,38)        179.6614         estimate D2E/DX2                !
 ! D147  D(34,36,38,39)        179.8023         estimate D2E/DX2                !
 ! D148  D(34,36,38,40)         -0.2449         estimate D2E/DX2                !
 ! D149  D(37,36,38,39)         -0.2753         estimate D2E/DX2                !
 ! D150  D(37,36,38,40)        179.6776         estimate D2E/DX2                !
 ! D151  D(36,38,40,31)          0.9866         estimate D2E/DX2                !
 ! D152  D(36,38,40,41)       -179.1373         estimate D2E/DX2                !
 ! D153  D(39,38,40,31)       -179.0606         estimate D2E/DX2                !
 ! D154  D(39,38,40,41)          0.8156         estimate D2E/DX2                !
 ! D155  D(3,42,43,44)          -1.6655         estimate D2E/DX2                !
 ! D156  D(3,42,43,45)         178.3122         estimate D2E/DX2                !
 ! D157  D(51,42,43,44)        179.3654         estimate D2E/DX2                !
 ! D158  D(51,42,43,45)         -0.6569         estimate D2E/DX2                !
 ! D159  D(3,42,51,49)        -178.4368         estimate D2E/DX2                !
 ! D160  D(3,42,51,52)           1.5773         estimate D2E/DX2                !
 ! D161  D(43,42,51,49)          0.5578         estimate D2E/DX2                !
 ! D162  D(43,42,51,52)       -179.4282         estimate D2E/DX2                !
 ! D163  D(42,43,45,46)       -179.8818         estimate D2E/DX2                !
 ! D164  D(42,43,45,47)          0.1247         estimate D2E/DX2                !
 ! D165  D(44,43,45,46)          0.0959         estimate D2E/DX2                !
 ! D166  D(44,43,45,47)       -179.8975         estimate D2E/DX2                !
 ! D167  D(43,45,47,48)       -179.4902         estimate D2E/DX2                !
 ! D168  D(43,45,47,49)          0.5204         estimate D2E/DX2                !
 ! D169  D(46,45,47,48)          0.5164         estimate D2E/DX2                !
 ! D170  D(46,45,47,49)       -179.473          estimate D2E/DX2                !
 ! D171  D(45,47,49,50)        179.3234         estimate D2E/DX2                !
 ! D172  D(45,47,49,51)         -0.6218         estimate D2E/DX2                !
 ! D173  D(48,47,49,50)         -0.666          estimate D2E/DX2                !
 ! D174  D(48,47,49,51)        179.3887         estimate D2E/DX2                !
 ! D175  D(47,49,51,42)          0.0794         estimate D2E/DX2                !
 ! D176  D(47,49,51,52)       -179.9347         estimate D2E/DX2                !
 ! D177  D(50,49,51,42)       -179.8658         estimate D2E/DX2                !
 ! D178  D(50,49,51,52)          0.1202         estimate D2E/DX2                !
 ! D179  D(4,53,54,55)          -7.2569         estimate D2E/DX2                !
 ! D180  D(4,53,54,56)         172.6948         estimate D2E/DX2                !
 ! D181  D(62,53,54,55)        179.3618         estimate D2E/DX2                !
 ! D182  D(62,53,54,56)         -0.6864         estimate D2E/DX2                !
 ! D183  D(4,53,62,60)        -172.8875         estimate D2E/DX2                !
 ! D184  D(4,53,62,63)           7.0797         estimate D2E/DX2                !
 ! D185  D(54,53,62,60)          0.6829         estimate D2E/DX2                !
 ! D186  D(54,53,62,63)       -179.3499         estimate D2E/DX2                !
 ! D187  D(53,54,56,57)        179.6344         estimate D2E/DX2                !
 ! D188  D(53,54,56,58)         -0.35           estimate D2E/DX2                !
 ! D189  D(55,54,56,57)         -0.4138         estimate D2E/DX2                !
 ! D190  D(55,54,56,58)        179.6017         estimate D2E/DX2                !
 ! D191  D(54,56,58,59)       -178.6519         estimate D2E/DX2                !
 ! D192  D(54,56,58,60)          1.4068         estimate D2E/DX2                !
 ! D193  D(57,56,58,59)          1.3636         estimate D2E/DX2                !
 ! D194  D(57,56,58,60)       -178.5776         estimate D2E/DX2                !
 ! D195  D(56,58,60,61)        178.563          estimate D2E/DX2                !
 ! D196  D(56,58,60,62)         -1.4159         estimate D2E/DX2                !
 ! D197  D(59,58,60,61)         -1.3783         estimate D2E/DX2                !
 ! D198  D(59,58,60,62)        178.6429         estimate D2E/DX2                !
 ! D199  D(58,60,62,53)          0.3716         estimate D2E/DX2                !
 ! D200  D(58,60,62,63)       -179.5956         estimate D2E/DX2                !
 ! D201  D(61,60,62,53)       -179.6072         estimate D2E/DX2                !
 ! D202  D(61,60,62,63)          0.4256         estimate D2E/DX2                !
 ! D203  D(4,64,65,66)           1.7443         estimate D2E/DX2                !
 ! D204  D(4,64,65,67)        -178.2615         estimate D2E/DX2                !
 ! D205  D(73,64,65,66)        179.904          estimate D2E/DX2                !
 ! D206  D(73,64,65,67)         -0.1018         estimate D2E/DX2                !
 ! D207  D(4,64,73,71)         176.6219         estimate D2E/DX2                !
 ! D208  D(4,64,73,74)          -3.3677         estimate D2E/DX2                !
 ! D209  D(65,64,73,71)         -1.578          estimate D2E/DX2                !
 ! D210  D(65,64,73,74)        178.4324         estimate D2E/DX2                !
 ! D211  D(64,65,67,68)       -178.3114         estimate D2E/DX2                !
 ! D212  D(64,65,67,69)          1.7577         estimate D2E/DX2                !
 ! D213  D(66,65,67,68)          1.6828         estimate D2E/DX2                !
 ! D214  D(66,65,67,69)       -178.2481         estimate D2E/DX2                !
 ! D215  D(65,67,69,70)        178.2469         estimate D2E/DX2                !
 ! D216  D(65,67,69,71)         -1.7248         estimate D2E/DX2                !
 ! D217  D(68,67,69,70)         -1.684          estimate D2E/DX2                !
 ! D218  D(68,67,69,71)        178.3443         estimate D2E/DX2                !
 ! D219  D(67,69,71,72)       -179.9614         estimate D2E/DX2                !
 ! D220  D(67,69,71,73)          0.0283         estimate D2E/DX2                !
 ! D221  D(70,69,71,72)          0.0669         estimate D2E/DX2                !
 ! D222  D(70,69,71,73)       -179.9434         estimate D2E/DX2                !
 ! D223  D(69,71,73,64)          1.632          estimate D2E/DX2                !
 ! D224  D(69,71,73,74)       -178.3784         estimate D2E/DX2                !
 ! D225  D(72,71,73,64)       -178.3783         estimate D2E/DX2                !
 ! D226  D(72,71,73,74)          1.6113         estimate D2E/DX2                !
 --------------------------------------------------------------------------------
 Trust Radius=3.00D-01 FncErr=1.00D-07 GrdErr=1.00D-06
 Number of steps in this run=    444 maximum allowed number of steps=    444.
 GradGradGradGradGradGradGradGradGradGradGradGradGradGradGradGradGradGrad

 Leave Link  103 at Fri Apr  3 10:51:39 2020, MaxMem=  1879048192 cpu:         0.1
 (Enter /home/programs/G09_D/g09/l202.exe)
 Stoichiometry    C39H28O3P2RuZn
 Framework group  C1[X(C39H28O3P2RuZn)]
 Deg. of freedom   216
 Full point group                 C1      NOp   1
 Largest Abelian subgroup         C1      NOp   1
 Largest concise Abelian subgroup C1      NOp   1
                         Standard orientation:                         
 ---------------------------------------------------------------------
 Center     Atomic      Atomic             Coordinates (Angstroms)
 Number     Number       Type             X           Y           Z
 ---------------------------------------------------------------------
      1         44           0        0.018720   -0.613956   -0.075050
      2         30           0        0.017445    2.070363    0.060295
      3         15           0       -2.294656   -0.202495    0.056499
      4         15           0        2.335217   -0.192682   -0.071565
      5          8           0        0.019759   -3.681004   -0.283576
      6          8           0       -0.001516    0.322416   -2.999512
      7          8           0        0.045779   -0.018259    2.933790
      8          6           0        0.014283   -2.559746   -0.220780
      9          6           0       -0.006295   -0.040237   -1.917008
     10          6           0        0.043083   -0.256671    1.814795
     11          6           0       -1.810569    2.446994    0.736482
     12          6           0       -2.707010    1.373480    0.895724
     13          6           0       -3.922381    1.525190    1.571950
     14          1           0       -4.487122    0.795437    1.684012
     15          6           0       -4.280456    2.764328    2.075226
     16          1           0       -5.078115    2.864222    2.543564
     17          6           0       -3.452515    3.852986    1.882156
     18          1           0       -3.705633    4.692229    2.193023
     19          6           0       -2.237772    3.690668    1.222008
     20          1           0       -1.691996    4.432295    1.097397
     21          6           0        1.845538    2.509973   -0.575536
     22          6           0        2.267093    3.776615   -1.000422
     23          1           0        1.699292    4.502663   -0.877387
     24          6           0        3.501456    3.987425   -1.599934
     25          1           0        3.736925    4.837967   -1.892811
     26          6           0        4.378417    2.935259   -1.758534
     27          1           0        5.203973    3.074820   -2.161513
     28          6           0        4.026391    1.666790   -1.317015
     29          1           0        4.623349    0.958521   -1.406697
     30          6           0        2.773121    1.460938   -0.738543
     31          6           0       -3.127749   -0.012447   -1.566799
     32          6           0       -3.724102    1.180169   -1.946521
     33          1           0       -3.722073    1.906873   -1.366994
     34          6           0       -4.327666    1.289157   -3.200361
     35          1           0       -4.724426    2.090599   -3.452657
     36          6           0       -4.339934    0.221145   -4.065644
     37          1           0       -4.746298    0.298695   -4.897923
     38          6           0       -3.742980   -0.969444   -3.692264
     39          1           0       -3.751342   -1.694927   -4.273059
     40          6           0       -3.128707   -1.083769   -2.449077
     41          1           0       -2.718694   -1.882681   -2.208547
     42          6           0       -3.301211   -1.514469    0.852436
     43          6           0       -4.647050   -1.687162    0.552965
     44          1           0       -5.063903   -1.113400   -0.048708
     45          6           0       -5.373349   -2.713193    1.147581
     46          1           0       -6.274671   -2.824646    0.941406
     47          6           0       -4.758890   -3.569107    2.045561
     48          1           0       -5.243074   -4.259449    2.437591
     49          6           0       -3.432812   -3.396808    2.356695
     50          1           0       -3.024211   -3.967177    2.967469
     51          6           0       -2.698573   -2.378355    1.768167
     52          1           0       -1.800250   -2.270564    1.985064
     53          6           0        3.031606   -0.171397    1.621800
     54          6           0        3.415403    1.012267    2.235657
     55          1           0        3.416746    1.806633    1.752758
     56          6           0        3.796452    1.011597    3.570596
     57          1           0        4.058079    1.806039    3.977706
     58          6           0        3.788490   -0.170228    4.298942
     59          1           0        4.026342   -0.164613    5.198427
     60          6           0        3.431335   -1.343542    3.691151
     61          1           0        3.446625   -2.136457    4.177478
     62          6           0        3.047842   -1.362931    2.359708
     63          1           0        2.801368   -2.164098    1.956495
     64          6           0        3.408305   -1.389095   -0.952776
     65          6           0        4.726371   -1.624632   -0.549563
     66          1           0        5.069868   -1.188223    0.195180
     67          6           0        5.521429   -2.513208   -1.265390
     68          1           0        6.389916   -2.686255   -0.981863
     69          6           0        5.034744   -3.135118   -2.387116
     70          1           0        5.581099   -3.709635   -2.874448
     71          6           0        3.732589   -2.910231   -2.797219
     72          1           0        3.405437   -3.333213   -3.557046
     73          6           0        2.914882   -2.053794   -2.074666
     74          1           0        2.032301   -1.922480   -2.340769
 ---------------------------------------------------------------------
 Rotational constants (GHZ):      0.0897497      0.0538870      0.0515065
 Leave Link  202 at Fri Apr  3 10:51:39 2020, MaxMem=  1879048192 cpu:         0.0
 (Enter /home/programs/G09_D/g09/l301.exe)
 General basis read from cards:  (5D, 7F)
 Centers:       1
 SDDAll
 *****
 Centers:       2
 SDDAll
 *****
 Centers:       3      4
 SDDALL
 D 1 1.
     Exponent=  3.8700000000D-01 Coefficients=  1.0000000000D+00
 *****
 Centers:       8      9     10     11     12     13     15     17     19     21
 Centers:      22     24     26     28     30     31     32     34     36     38
 Centers:      40     42     43     45     47     49     51     53     54     56
 Centers:      58     60     62     64     65     67     69     71     73     14
 Centers:      16     18     20     23     25     27     29     33     35     37
 Centers:      39     41     44     46     48     50     52     55     57     59
 Centers:      61     63     66     68     70     72     74      5      6      7
 6-31g**
 *****
 ======================================================================================================
                                       Pseudopotential Parameters
 ======================================================================================================
  Center     Atomic      Valence      Angular      Power
  Number     Number     Electrons     Momentum     of R      Exponent        Coefficient   SO-Coeffient
 ======================================================================================================
    1         44           16
                                      G and up 
                                                     2        1.0000000        0.00000000    0.00000000
                                      S - G
                                                     2       11.1052690      209.82297100    0.00000000
                                                     2        5.4147450       30.65472600    0.00000000
                                      P - G
                                                     2        9.7712710      146.33618200    0.00000000
                                                     2        5.0739910       24.12787700    0.00000000
                                      D - G
                                                     2        7.6714230       67.51589700    0.00000000
                                                     2        4.1365650        9.87010400    0.00000000
                                      F - G
                                                     2       11.3600000      -28.34061600    0.00000000
                                                     2        5.6800000       -4.94462900    0.00000000
    2         30           20
                                      F and up 
                                                     2        1.0000000        0.00000000    0.00000000
                                      S - F
                                                     2       34.1500000      399.98728200    0.00000000
                                                     2       14.5900000       85.48565500    0.00000000
                                      P - F
                                                     2       39.7800000      277.14896000    0.00000000
                                                     2       14.9500000       69.05220500    0.00000000
                                      D - F
                                                     2       43.8000000      -34.14934900    0.00000000
                                                     2       14.9800000       -3.29183100    0.00000000
    3         15            5
                                      F and up 
                                                     2        1.0000000        0.00000000    0.00000000
                                      S - F
                                                     2        2.9405599       26.53226131    0.00000000
                                      P - F
                                                     2        2.2277126       11.49721021    0.00000000
                                      D - F
                                                     2        5.6617060      -16.77278000    0.00000000
    4         15            5
                                      F and up 
                                                     2        1.0000000        0.00000000    0.00000000
                                      S - F
                                                     2        2.9405599       26.53226131    0.00000000
                                      P - F
                                                     2        2.2277126       11.49721021    0.00000000
                                      D - F
                                                     2        5.6617060      -16.77278000    0.00000000
    5          8
                                   No pseudopotential on this center.
    6          8
                                   No pseudopotential on this center.
    7          8
                                   No pseudopotential on this center.
    8          6
                                   No pseudopotential on this center.
    9          6
                                   No pseudopotential on this center.
   10          6
                                   No pseudopotential on this center.
   11          6
                                   No pseudopotential on this center.
   12          6
                                   No pseudopotential on this center.
   13          6
                                   No pseudopotential on this center.
   14          1
                                   No pseudopotential on this center.
   15          6
                                   No pseudopotential on this center.
   16          1
                                   No pseudopotential on this center.
   17          6
                                   No pseudopotential on this center.
   18          1
                                   No pseudopotential on this center.
   19          6
                                   No pseudopotential on this center.
   20          1
                                   No pseudopotential on this center.
   21          6
                                   No pseudopotential on this center.
   22          6
                                   No pseudopotential on this center.
   23          1
                                   No pseudopotential on this center.
   24          6
                                   No pseudopotential on this center.
   25          1
                                   No pseudopotential on this center.
   26          6
                                   No pseudopotential on this center.
   27          1
                                   No pseudopotential on this center.
   28          6
                                   No pseudopotential on this center.
   29          1
                                   No pseudopotential on this center.
   30          6
                                   No pseudopotential on this center.
   31          6
                                   No pseudopotential on this center.
   32          6
                                   No pseudopotential on this center.
   33          1
                                   No pseudopotential on this center.
   34          6
                                   No pseudopotential on this center.
   35          1
                                   No pseudopotential on this center.
   36          6
                                   No pseudopotential on this center.
   37          1
                                   No pseudopotential on this center.
   38          6
                                   No pseudopotential on this center.
   39          1
                                   No pseudopotential on this center.
   40          6
                                   No pseudopotential on this center.
   41          1
                                   No pseudopotential on this center.
   42          6
                                   No pseudopotential on this center.
   43          6
                                   No pseudopotential on this center.
   44          1
                                   No pseudopotential on this center.
   45          6
                                   No pseudopotential on this center.
   46          1
                                   No pseudopotential on this center.
   47          6
                                   No pseudopotential on this center.
   48          1
                                   No pseudopotential on this center.
   49          6
                                   No pseudopotential on this center.
   50          1
                                   No pseudopotential on this center.
   51          6
                                   No pseudopotential on this center.
   52          1
                                   No pseudopotential on this center.
   53          6
                                   No pseudopotential on this center.
   54          6
                                   No pseudopotential on this center.
   55          1
                                   No pseudopotential on this center.
   56          6
                                   No pseudopotential on this center.
   57          1
                                   No pseudopotential on this center.
   58          6
                                   No pseudopotential on this center.
   59          1
                                   No pseudopotential on this center.
   60          6
                                   No pseudopotential on this center.
   61          1
                                   No pseudopotential on this center.
   62          6
                                   No pseudopotential on this center.
   63          1
                                   No pseudopotential on this center.
   64          6
                                   No pseudopotential on this center.
   65          6
                                   No pseudopotential on this center.
   66          1
                                   No pseudopotential on this center.
   67          6
                                   No pseudopotential on this center.
   68          1
                                   No pseudopotential on this center.
   69          6
                                   No pseudopotential on this center.
   70          1
                                   No pseudopotential on this center.
   71          6
                                   No pseudopotential on this center.
   72          1
                                   No pseudopotential on this center.
   73          6
                                   No pseudopotential on this center.
   74          1
                                   No pseudopotential on this center.
 ======================================================================================================
 Ernie: Thresh=  0.10000D-02 Tol=  0.10000D-05 Strict=F.
 There are   876 symmetry adapted cartesian basis functions of A   symmetry.
 There are   826 symmetry adapted basis functions of A   symmetry.
   826 basis functions,  1546 primitive gaussians,   876 cartesian basis functions
   166 alpha electrons      166 beta electrons
       nuclear repulsion energy      6103.0705938253 Hartrees.
 IExCor=  404 DFT=T Ex=B Corr=P86 ExCW=0 ScaHFX=  0.000000
 ScaDFX=  1.000000  1.000000  1.000000  1.000000 ScalE2=  1.000000  1.000000
 IRadAn=      5 IRanWt=     -1 IRanGd=            0 ICorTp=0 IEmpDi=  4
 NAtoms=   74 NActive=   74 NUniq=   74 SFac= 1.00D+00 NAtFMM=   60 NAOKFM=T Big=T
 Integral buffers will be    131072 words long.
 Raffenetti 2 integral format.
 Two-electron integral symmetry is turned on.
 Leave Link  301 at Fri Apr  3 10:51:39 2020, MaxMem=  1879048192 cpu:         0.5
 (Enter /home/programs/G09_D/g09/l302.exe)
 NPDir=0 NMtPBC=     1 NCelOv=     1 NCel=       1 NClECP=     1 NCelD=      1
         NCelK=      1 NCelE2=     1 NClLst=     1 CellRange=     0.0.
 One-electron integrals computed using PRISM.
   1 Symmetry operations used in ECPInt.
 ECPInt:  NShTT=   42195 NPrTT=  220327 LenC2=   31527 LenP2D=   90708.
 LDataN:  DoStor=T MaxTD1= 6 Len=  172
 NBasis=   826 RedAO= T EigKep=  3.52D-04  NBF=   826
 NBsUse=   826 1.00D-06 EigRej= -1.00D+00 NBFU=   826
 Precomputing XC quadrature grid using
 IXCGrd= 4 IRadAn=           5 IRanWt=          -1 IRanGd=           0 AccXCQ= 0.00D+00.
 Defaulting to unpruned grid for atomic number  44.
 Generated NRdTot=       0 NPtTot=           0 NUsed=           0 NTot=          32
 NSgBfM=   833   833   833   833   835 MxSgAt=    74 MxSgA2=    74.
 Leave Link  302 at Fri Apr  3 10:51:44 2020, MaxMem=  1879048192 cpu:        37.0
 (Enter /home/programs/G09_D/g09/l303.exe)
 DipDrv:  MaxL=1.
 Leave Link  303 at Fri Apr  3 10:51:44 2020, MaxMem=  1879048192 cpu:         1.4
 (Enter /home/programs/G09_D/g09/l401.exe)
 ExpMin= 1.00D-02 ExpMax= 5.48D+03 ExpMxC= 8.25D+02 IAcc=3 IRadAn=         5 AccDes= 0.00D+00
 Harris functional with IExCor=  404 and IRadAn=       5 diagonalized for initial guess.
 HarFok:  IExCor=  404 AccDes= 0.00D+00 IRadAn=         5 IDoV= 1 UseB2=F ITyADJ=14
 ICtDFT=  3500011 ScaDFX=  1.000000  1.000000  1.000000  1.000000
 Defaulting to unpruned grid for atomic number  44.
 Defaulting to unpruned grid for atomic number  44.
 Defaulting to unpruned grid for atomic number  44.
 Defaulting to unpruned grid for atomic number  44.
 Defaulting to unpruned grid for atomic number  44.
 Defaulting to unpruned grid for atomic number  44.
 Defaulting to unpruned grid for atomic number  44.
 Defaulting to unpruned grid for atomic number  44.
 FoFCou: FMM=F IPFlag=           0 FMFlag=      100000 FMFlg1=        2001
         NFxFlg=           0 DoJE=T BraDBF=F KetDBF=T FulRan=T
         wScrn=  0.000000 ICntrl=     500 IOpCl=  0 I1Cent=   200000004 NGrid=           0
         NMat0=    1 NMatS0=      1 NMatT0=    0 NMatD0=    1 NMtDS0=    0 NMtDT0=    0
 Petite list used in FoFCou.
 Harris En= -2064.52226323061    
 JPrj=0 DoOrth=F DoCkMO=F.
 Leave Link  401 at Fri Apr  3 10:52:01 2020, MaxMem=  1879048192 cpu:       132.9
 (Enter /home/programs/G09_D/g09/l502.exe)
 Closed shell SCF:
 Using DIIS extrapolation, IDIIS=  1040.
 Integral symmetry usage will be decided dynamically.
 IVT=     2334206 IEndB=     2334206 NGot=  1879048192 MDV=  1877498879
 LenX=  1877498879 LenY=  1876730627
 Requested convergence on RMS density matrix=1.00D-08 within 128 cycles.
 Requested convergence on MAX density matrix=1.00D-06.
 Requested convergence on             energy=1.00D-06.
 No special actions if energy rises.
 Fock matrices will be formed incrementally for  20 cycles.

 Cycle   1  Pass 1  IDiag  1:
 FoFJK:  IHMeth= 1 ICntrl=     500 DoSepK=F KAlg= 0 I1Cent=   0 FoldK=F
 IRaf= 840000000 NMat=   1 IRICut=       1 DoRegI=T DoRafI=F ISym2E= 0.
 FoFCou: FMM=T IPFlag=           0 FMFlag=      100000 FMFlg1=        2001
         NFxFlg=           0 DoJE=T BraDBF=F KetDBF=F FulRan=T
         wScrn=  0.000000 ICntrl=     500 IOpCl=  0 I1Cent=           0 NGrid=           0
         NMat0=    1 NMatS0=      1 NMatT0=    0 NMatD0=    1 NMtDS0=    0 NMtDT0=    0
 Symmetry not used in FoFCou.
 FMM levels:  10  Number of levels for PrismC:   9
 Defaulting to unpruned grid for atomic number  44.
 Defaulting to unpruned grid for atomic number  44.
 Defaulting to unpruned grid for atomic number  44.
 Defaulting to unpruned grid for atomic number  44.
 Defaulting to unpruned grid for atomic number  44.
 Defaulting to unpruned grid for atomic number  44.
 Defaulting to unpruned grid for atomic number  44.
 Defaulting to unpruned grid for atomic number  44.
 E= -2061.95839179691    
 DIIS: error= 5.86D-02 at cycle   1 NSaved=   1.
 NSaved= 1 IEnMin= 1 EnMin= -2061.95839179691     IErMin= 1 ErrMin= 5.86D-02
 ErrMax= 5.86D-02  0.00D+00 EMaxC= 1.00D-01 BMatC= 1.77D+00 BMatP= 1.77D+00
 IDIUse=3 WtCom= 4.14D-01 WtEn= 5.86D-01
 Coeff-Com:  0.100D+01
 Coeff-En:   0.100D+01
 Coeff:      0.100D+01
 Gap=     0.360 Goal=   None    Shift=    0.000
 GapD=    0.360 DampG=1.000 DampE=0.250 DampFc=0.2500 IDamp=-1.
 Damping current iteration by 2.50D-01
 RMSDP=6.48D-03 MaxDP=1.23D+00              OVMax= 6.49D-01

 Cycle   2  Pass 1  IDiag  1:
 RMSU=  1.62D-03    CP:  9.93D-01
 E= -2062.11228960755     Delta-E=       -0.153897810638 Rises=F Damp=T
 DIIS: error= 1.24D-02 at cycle   2 NSaved=   2.
 NSaved= 2 IEnMin= 2 EnMin= -2062.11228960755     IErMin= 2 ErrMin= 1.24D-02
 ErrMax= 1.24D-02  0.00D+00 EMaxC= 1.00D-01 BMatC= 3.05D-01 BMatP= 1.77D+00
 IDIUse=3 WtCom= 8.76D-01 WtEn= 1.24D-01
 Coeff-Com:  0.586D-01 0.941D+00
 Coeff-En:   0.441D+00 0.559D+00
 Coeff:      0.106D+00 0.894D+00
 Gap=    -0.181 Goal=   None    Shift=    0.000
 RMSDP=3.62D-03 MaxDP=4.76D-01 DE=-1.54D-01 OVMax= 9.47D-01

 Cycle   3  Pass 1  IDiag  1:
 RMSU=  3.49D-03    CP:  9.60D-01  4.73D-01
 E= -2055.44734254896     Delta-E=        6.664947058586 Rises=F Damp=F
 DIIS: error= 1.14D-01 at cycle   3 NSaved=   3.
 NSaved= 3 IEnMin= 2 EnMin= -2062.11228960755     IErMin= 2 ErrMin= 1.24D-02
 ErrMax= 1.14D-01  0.00D+00 EMaxC= 1.00D-01 BMatC= 5.55D+00 BMatP= 3.05D-01
 IDIUse=2 WtCom= 0.00D+00 WtEn= 1.00D+00
 EnCoef did    11 forward-backward iterations
 Coeff-En:   0.388D+00 0.587D+00 0.253D-01
 Coeff:      0.388D+00 0.587D+00 0.253D-01
 Gap=    -0.111 Goal=   None    Shift=    0.000
 RMSDP=3.35D-03 MaxDP=7.23D-01 DE= 6.66D+00 OVMax= 5.23D-01

 Cycle   4  Pass 1  IDiag  1:
 RMSU=  1.95D-03    CP:  9.74D-01  1.14D+00  2.85D-01
 E= -2061.87311887950     Delta-E=       -6.425776330538 Rises=F Damp=F
 DIIS: error= 6.97D-02 at cycle   4 NSaved=   4.
 NSaved= 4 IEnMin= 2 EnMin= -2062.11228960755     IErMin= 2 ErrMin= 1.24D-02
 ErrMax= 6.97D-02  0.00D+00 EMaxC= 1.00D-01 BMatC= 1.92D+00 BMatP= 3.05D-01
 IDIUse=2 WtCom= 0.00D+00 WtEn= 1.00D+00
 EnCoef did   100 forward-backward iterations
 Coeff-En:   0.506D+00 0.842D-02 0.335D-03 0.485D+00
 Coeff:      0.506D+00 0.842D-02 0.335D-03 0.485D+00
 Gap=     0.174 Goal=   None    Shift=    0.000
 RMSDP=2.23D-03 MaxDP=4.85D-01 DE=-6.43D+00 OVMax= 5.02D-01

 Cycle   5  Pass 1  IDiag  1:
 RMSU=  1.50D-03    CP:  9.78D-01  6.19D-01  1.72D-01  2.99D-01
 E= -2062.52507175410     Delta-E=       -0.651952874604 Rises=F Damp=F
 DIIS: error= 6.46D-02 at cycle   5 NSaved=   5.
 NSaved= 5 IEnMin= 5 EnMin= -2062.52507175410     IErMin= 2 ErrMin= 1.24D-02
 ErrMax= 6.46D-02  0.00D+00 EMaxC= 1.00D-01 BMatC= 1.15D+00 BMatP= 3.05D-01
 IDIUse=2 WtCom= 0.00D+00 WtEn= 1.00D+00
 EnCoef did     9 forward-backward iterations
 Coeff-En:   0.116D+00 0.000D+00 0.000D+00 0.407D+00 0.476D+00
 Coeff:      0.116D+00 0.000D+00 0.000D+00 0.407D+00 0.476D+00
 Gap=     0.115 Goal=   None    Shift=    0.000
 RMSDP=1.80D-03 MaxDP=3.06D-01 DE=-6.52D-01 OVMax= 3.22D-01

 Cycle   6  Pass 1  IDiag  1:
 RMSU=  7.11D-04    CP:  9.85D-01  4.24D-01  1.45D-01  5.28D-01 -4.08D-02
 E= -2063.17002682425     Delta-E=       -0.644955070151 Rises=F Damp=F
 DIIS: error= 2.17D-02 at cycle   6 NSaved=   6.
 NSaved= 6 IEnMin= 6 EnMin= -2063.17002682425     IErMin= 2 ErrMin= 1.24D-02
 ErrMax= 2.17D-02  0.00D+00 EMaxC= 1.00D-01 BMatC= 4.25D-01 BMatP= 3.05D-01
[...]
 -0.00000285,-0.00000252,0.00000411,0.00001586,0.00000137,-0.00000816,-
 0.00002043,-0.00000006,-0.00002981,0.00000387,0.00000457,0.00001550,-0
 .00000047,-0.00002041,-0.00002994,-0.00001278,-0.00000696,0.00001109,-
 0.00000461,-0.00000279,-0.00000157,-0.00000037,-0.00000463,-0.00000244
 ,-0.00000544,0.00000157,0.00000009,-0.00000159,-0.00000208,-0.00000052
 ,-0.00000241,-0.00000071,-0.00000009,-0.00000013,-0.00000121,-0.000001
 78,-0.00000066,0.00000039,-0.00000023,0.00000151,-0.00000071,0.0000021
 4,0.00000431,0.00000486,-0.00000135,0.00000195,0.00000129,-0.00015107,
 0.00010343,-0.00044291,0.00012505,-0.00004556,-0.00001837,-0.00000712,
 -0.00000467,-0.00002177,0.00001200,0.00002987,0.00004660,0.00001535,0.
 00000959,-0.00000537,0.00001858,-0.00000254,-0.00001004,0.00000438,-0.
 00000145,-0.00000926,0.00002057,0.00001747,0.00002203,0.00001489,-0.00
 000233,-0.00000190,0.00000189,0.00006690,0.00000560,-0.00001075,-0.000
 00955,-0.00001511,-0.00218943,0.00153167,-0.00462672,-0.00061507,-0.00
 044784,-0.00092676,0.00026957,-0.00016035,0.00005078,-0.00341216,-0.00
 055890,-0.00100793,-0.00070583,-0.00058636,0.00044924,-0.01068833,-0.0
 1133476,0.01029213,0.00088103,-0.00048081,0.00058470,0.07038911,0.0800
 4537,-0.10526349,-0.07432855,-0.08739181,0.10901685,-0.00076188,-0.001
 21568,0.00093104,-0.00008160,0.00040701,0.00003766,-0.00004642,-0.0000
 5598,-0.00030967,0.00503385,0.00316152,0.00528932,0.00004111,-0.000560
 59,0.00019928,-0.00038172,-0.00021977,0.00078589,-0.00007566,-0.000125
 10,0.00036638,0.00048831,0.00087932,-0.00025833,0.00056351,0.00072291,
 -0.00200563,-0.00010838,0.00015081,-0.00051422,0.00003812,-0.00008791,
 0.00003262,-0.00003873,-0.00001858,-0.00002356,-0.00000066,-0.00002431
 ,-0.00001850,-0.00000197,-0.00000491,-0.00000960,0.00000270,-0.0000133
 6,0.00000057,0.00000074,-0.00000183,-0.00000063,0.00000138,0.00000459,
 0.00001222,0.00000011,-0.00000014,-0.00000056,-0.00000222,-0.00000183,
 -0.00000202,0.00000756,-0.00000125,0.00000864,-0.00011957,0.00023878,0
 .00015995,-0.00018380,0.00002175,-0.00015488,-0.00003595,0.00005895,-0
 .00002804,-0.00006338,0.00004025,-0.00002010,-0.00004772,-0.00001052,-
 0.00000677,0.00011345,-0.00007820,-0.00025545,0.00000497,0.00004000,0.
 00001535,-0.00005142,0.00001699,-0.00020782,-0.00027232,-0.00024828,-0
 .00023597,-0.00056471,0.00058866,-0.00156967,0.00002671,0.00000180,-0.
 00003508,0.00000344,-0.00001428,0.00001260,0.00001309,-0.00000300,-0.0
 0000280,-0.00000156,-0.00000198,0.00001489,0.00000162,-0.00000272,0.00
 000265,-0.00002754,-0.00000728,0.00000443,0.00000432,-0.00000181,-0.00
 000168,0.00000545,-0.00000102,0.00003532,-0.00001230,-0.00002029,0.000
 00103,-0.00006957,0.00002611,0.00000675,0.00003502,-0.00004150,-0.0000
 4080,-0.00004659,-0.00002347,0.00000047,0.00001290,-0.00001499,-0.0000
 0430,-0.00000142,-0.00000154,-0.00000745,-0.00000699,-0.00000506,0.000
 00258,0.00000024,-0.00000104,-0.00000231,0.,0.,0.00000018,-0.00000007,
 0.00000127,0.00000017,0.00000368,0.00000197,-0.00000105,-0.00000178,0.
 00000323,-0.00000042,-0.00000105,-0.00000057,0.00001052,0.00000664,-0.
 00000557,0.00000428,-0.00051695,-0.00014475,-0.00173932,0.00038163,-0.
 00002037,-0.00002995,-0.00002986,-0.00002432,-0.00008090,0.00002327,0.
 00011481,0.00020785,0.00003971,0.00002923,-0.00003457,0.00010262,-0.00
 007369,-0.00002532,0.00001739,-0.00000510,-0.00004261,0.00015382,0.000
 11380,0.00005493,0.00005661,-0.00000473,-0.00000108,0.00008861,0.00007
 364,0.00001067,-0.00005352,0.00002131,-0.00007222,-0.16437655,-0.11019
 747,0.06236403,-0.02845269,-0.02610630,-0.01133328,0.00018604,-0.00431
 658,-0.00345635,-0.00780788,-0.00557714,0.01478940,-0.00004257,0.00035
 252,0.00067919,0.01147663,0.01127324,-0.02294675,-0.00036165,-0.005148
 19,-0.00342782,-0.09414346,-0.01645213,-0.05113642,0.00462522,-0.00380
 465,0.01905793,0.45941028,-0.00139518,-0.00014093,-0.00019137,0.000004
 85,0.00017300,-0.00002238,0.00005018,-0.00008345,-0.00015913,0.0004059
 3,-0.00189381,0.00917086,-0.00031129,0.00012683,-0.00026123,-0.0008232
 4,0.00011192,0.00178164,-0.00003937,-0.00006842,0.00018873,0.00075072,
 -0.00016013,0.00012191,0.00207670,0.00006254,-0.00210643,-0.00000649,0
 .00007350,-0.00032232,-0.00000113,-0.00002012,0.00001302,-0.00001342,0
 .00000590,0.00000596,0.00000267,-0.00001673,-0.00000639,0.00000067,-0.
 00000125,-0.00000227,0.00000149,-0.00000313,0.00000176,0.00000034,-0.0
 0000099,0.00000043,-0.00000053,0.00000519,0.00000427,0.00000039,-0.000
 00025,-0.00000113,-0.00000450,-0.00000275,-0.00000672,0.00000332,-0.00
 000099,0.00000273,-0.00017639,0.00010593,0.00002169,-0.00005550,-0.000
 04836,-0.00008872,0.00000474,0.00003734,-0.00002366,-0.00000305,0.0000
 4981,0.00008197,-0.00001928,0.00000403,-0.00001043,-0.00006690,0.00002
 537,-0.00015818,0.00000175,0.00002715,0.00000536,0.00015684,0.00005291
 ,0.00010490,-0.00025810,-0.00013377,-0.00025109,-0.00029477,0.00003181
 ,-0.00041163,0.00000998,0.00000368,-0.00001514,-0.00001184,0.00000493,
 0.00000287,0.00000462,-0.00000218,-0.00000531,-0.00000319,0.00000369,0
 .00000149,-0.00000081,-0.00000155,-0.00000111,-0.00001474,-0.00000004,
 0.00000418,0.00000123,-0.00000255,-0.00000134,-0.00000206,-0.00000346,
 0.00002209,0.00000035,-0.00000690,-0.00000313,-0.00000356,0.00000488,0
 .00001097,0.00000962,-0.00000529,0.00000222,-0.00003448,-0.00001721,-0
 .00001103,0.00000660,-0.00000328,-0.00000113,-0.00000148,-0.00000239,-
 0.00000444,-0.00000298,-0.00000304,0.00000088,0.00000018,-0.00000082,-
 0.00000036,-0.00000322,-0.00000014,-0.00000094,-0.00000032,0.00000040,
 0.00000119,0.00000346,0.00000167,-0.00000343,-0.00000216,0.00000161,0.
 00000278,-0.00000102,0.00001142,0.00000443,-0.00000082,-0.00000407,0.0
 0000219,0.00034427,0.00095789,-0.00129345,-0.00001720,-0.00020064,-0.0
 0003749,-0.00002504,0.00001301,-0.00005129,0.00030259,0.00004411,0.000
 02437,0.00003580,0.00003512,0.00002360,0.00002765,0.00029362,-0.000058
 29,0.00001458,0.00002075,0.00000206,-0.00031492,-0.00008551,0.00006917
 ,0.00000352,-0.00003342,-0.00004139,0.00012852,-0.00006376,-0.00027262
 ,-0.00006068,0.00013008,0.00017136,-0.10294187,-0.16392760,0.07601311,
 -0.03312923,-0.01543495,-0.01997588,-0.00361869,0.00320749,-0.00088450
 ,-0.00488189,-0.01634237,0.02078527,0.00036772,-0.00056020,0.00053971,
 0.01920722,0.02484186,-0.00914169,-0.00534252,0.00279311,-0.00098563,-
 0.02924469,-0.08984494,0.03139946,0.00282602,-0.00108431,0.01944892,0.
 25592450,0.35888404,-0.00130437,-0.00071491,-0.00072089,0.00005637,0.0
 0021858,0.00012512,0.00024127,0.00021623,-0.00012446,0.01115605,0.0138
 5359,-0.01524712,0.00011495,-0.00055622,0.00028165,-0.00076969,-0.0000
 9236,0.00136751,-0.00017336,-0.00012579,0.00014325,0.00002675,0.000901
 60,-0.00066894,0.00128985,0.00003856,-0.00250705,0.00028805,0.00028885
 ,-0.00001269,0.00002139,-0.00005111,0.00002484,-0.00006627,-0.00004581
 ,-0.00004890,-0.00000483,-0.00000191,-0.00001603,0.00000061,-0.0000056
 8,-0.00000651,0.00000024,-0.00001237,-0.00000687,-0.00000002,-0.000000
 47,-0.00000413,-0.00000015,0.00000358,0.00000747,-0.00000039,0.0000007
 9,-0.00000415,-0.00000356,-0.00001229,-0.00000921,0.00000772,-0.000000
 87,0.00000509,-0.00031078,0.00072803,-0.00007667,-0.00017567,-0.000136
 23,0.00000969,-0.00003579,0.00005781,-0.00000707,0.00003872,0.00001853
 ,-0.00000888,0.00006329,0.00004354,-0.00000282,-0.00011023,0.00004503,
 0.00033096,-0.00002445,0.00002569,0.00000826,-0.00022828,-0.00018350,-
 0.00013027,0.00038811,0.00026422,0.00032244,0.00110547,-0.00145323,-0.
 00112944,0.00002934,0.00000014,-0.00001578,0.00000842,-0.00002591,0.00
 002204,0.00001808,-0.00000281,-0.00000351,-0.00000316,-0.00000408,0.00
 001146,-0.00000134,-0.00000441,0.00000189,-0.00003938,0.00000261,0.000
 01002,-0.00000232,-0.00000743,-0.00000461,0.00000580,0.00001529,0.0000
 3027,-0.00001275,-0.00003859,-0.00000149,-0.00006287,0.00001918,0.0000
 0987,0.00003684,-0.00001805,-0.00004107,-0.00007232,-0.00003885,-0.000
 00811,0.00002664,-0.00000448,-0.00000381,-0.00000436,-0.00000257,-0.00
 000992,-0.00000698,-0.00001154,0.00000059,0.00000016,-0.00000387,-0.00
 000382,-0.00000375,-0.00000292,-0.00000027,-0.00000018,-0.00000074,-0.
 00000158,-0.00000301,-0.00000283,-0.00000506,-0.00000210,0.00000484,0.
 00000190,0.00000453,0.00001475,0.00001653,-0.00000638,0.00000752,-0.00
 000013,-0.00144033,0.00140474,-0.00428785,0.00133838,-0.00024134,-0.00
 025218,-0.00006748,-0.00005603,-0.00020931,0.00006743,0.00034776,0.000
 40570,0.00012889,0.00006717,-0.00004446,0.00011548,-0.00005623,-0.0001
 0416,0.00001177,-0.00003041,-0.00007040,0.00027144,0.00008974,0.000254
 07,0.00008448,-0.00000869,-0.00000530,-0.00006842,0.00053292,0.0002267
 0,-0.00000504,-0.00027360,-0.00016021,0.03407934,0.05229029,-0.1376188
 6,0.01440284,0.00134203,0.04916617,-0.00406721,-0.00127601,-0.00154264
 ,0.01379356,0.02099746,-0.03849834,0.00074662,0.00045851,-0.00072459,-
 0.05295490,-0.03434860,-0.02918229,-0.00273525,-0.00032917,0.00067808,
 -0.00704945,0.06834876,-0.31443594,-0.00299648,0.00106937,-0.00921612,
 0.09966554,-0.05998051,0.63098242,-0.00076575,0.00064774,-0.00092010,0
 .00004311,-0.00005742,0.00002060,0.00012803,0.00003496,0.00010140,-0.0
 0125174,0.00061409,-0.00070254,-0.00040027,0.00059312,-0.00030018,-0.0
 0182053,0.00026112,0.00055265,0.00000746,0.00006369,-0.00014207,0.0004
 6803,-0.00061825,0.00061680,0.00184752,-0.00034652,-0.00215776,0.00006
 556,-0.00008253,0.00024448,-0.00001121,0.00001855,-0.00000662,-0.00001
 530,-0.00001826,-0.00000906,-0.00000143,0.00001574,-0.00000144,-0.0000
 0163,-0.00000241,0.00000238,0.00000112,-0.00000027,-0.00000344,-0.0000
 0183,-0.00000018,-0.00000238,-0.00000094,0.00000282,-0.00000367,-0.000
 00179,0.00000081,-0.00000267,-0.00000186,-0.00000619,-0.00001018,-0.00
 000093,0.00000175,-0.00000070,-0.00008464,0.00011718,-0.00005051,-0.00
 002081,0.00000878,0.00002587,-0.00000423,0.00000542,-0.00000137,-0.000
 00784,0.00000654,-0.00001399,0.00000311,0.00000577,0.00000379,0.000014
 10,0.00000705,0.00004566,-0.00000433,0.00001045,0.00000238,-0.00005899
 ,0.00002558,-0.00005661,-0.00002327,0.00002666,0.00002391,0.00015130,-
 0.00001575,-0.00014850,-0.00000354,0.00000618,-0.00003101,-0.00001139,
 -0.00000609,0.00001482,0.00000310,-0.00000451,-0.00000746,-0.00000612,
 0.00000025,-0.00000131,-0.00000388,-0.00000099,-0.00000026,-0.00001849
 ,0.00000826,-0.00000016,-0.00000379,-0.00000367,-0.00000161,-0.0000068
 9,0.00000610,0.00001369,0.00000397,-0.00001107,-0.00000419,0.00003083,
 -0.00001192,-0.00000167,-0.00000066,0.00001921,0.00001556,-0.00002109,
 -0.00000952,-0.00001901,0.00001402,-0.00000415,-0.00000387,-0.00000127
 ,-0.00000055,-0.00000187,-0.00000238,-0.00000588,0.00000257,-0.0000000
 6,-0.00000261,-0.00000129,0.00000044,0.00000125,0.00000007,0.00000003,
 -0.00000209,-0.00000068,-0.00000929,0.00000277,-0.00000108,0.00000101,
 -0.00000062,0.00000146,-0.00000507,0.00000075,-0.00000063,-0.00000675,
 -0.00000226,0.00000355,-0.00003358,0.00008169,0.00019879,0.00006961,0.
 00006911,0.00000919,-0.00000529,-0.00000179,0.00000569,-0.00001340,0.0
 0001560,-0.00002353,-0.00000063,0.00000052,-0.00000801,0.00000354,-0.0
 0001219,0.00000684,0.00000047,0.00000094,-0.00000149,0.00001455,0.0000
 0412,-0.00000648,-0.00000182,-0.00000014,-0.00000114,0.00003117,-0.000
 06145,0.00002556,-0.00000265,0.00000213,-0.00001388,-0.01007061,-0.007
 38041,-0.00876651,0.00131709,-0.00479945,0.00173139,-0.00030376,-0.000
 49179,-0.00072679,-0.00011125,0.00045136,0.00065352,-0.00047081,0.0005
 7397,0.00008238,0.00390198,-0.00254411,-0.00087540,0.00005233,-0.00011
 364,0.00010428,0.00154863,-0.00151092,0.00020549,-0.00107622,0.0022043
 6,0.00056777,-0.18417864,-0.09955049,-0.10482110,0.19112649,0.00058308
 ,-0.00070590,-0.00041594,0.00001989,-0.00002815,0.00009781,0.00004639,
 0.00014401,0.00012674,0.00028854,-0.00184263,-0.00106729,0.00037301,-0
 .00052581,0.00028637,0.00058776,-0.00012535,-0.00094462,0.00003862,0.0
 0000201,-0.00017301,-0.00045228,0.00068749,-0.00065035,-0.00110630,0.0
 0057130,0.00121642,0.00001971,0.00009408,0.00035768,0.00000612,-0.0000
 0885,0.00000396,-0.00002281,-0.00002650,-0.00001895,-0.00000566,0.0000
 1314,-0.00000594,0.00000013,-0.00000257,-0.00000018,-0.00000207,-0.000
 00422,-0.00000460,-0.00000008,0.00000073,-0.00000316,-0.00000025,-0.00
 000167,0.00000112,-0.00000090,0.00000072,-0.00000155,0.00000679,-0.000
 00459,-0.00000124,0.00000003,-0.00000037,-0.00000038,0.00007982,-0.000
 15938,0.00002513,0.00007219,0.00001029,0.00003732,0.00000722,-0.000013
 70,-0.00000157,0.00000713,-0.00000922,0.00001939,-0.00000206,-0.000000
 39,0.00000257,0.00001537,0.00000853,-0.00001382,-0.00000532,-0.0000021
 2,0.00000167,-0.00002495,-0.00004198,-0.00008066,-0.00002427,0.0000438
 6,-0.00000771,0.00003733,0.00005806,0.00047933,0.00000100,0.00000075,-
 0.00004751,0.00002182,-0.00003400,0.00001537,0.00000695,-0.00000187,0.
 00000239,-0.00000035,-0.00000616,0.00001774,0.00000006,-0.00000201,0.0
 0000396,-0.00002168,-0.00000182,-0.00000062,0.00000061,-0.00000024,-0.
 00000040,0.00000598,0.00000727,0.00000765,-0.00001218,-0.00002004,0.00
 000276,-0.00005997,0.00001605,-0.00000209,0.00003696,-0.00002441,-0.00
 005113,-0.00003349,-0.00001050,-0.00000245,0.00001386,-0.00000620,-0.0
 0000558,-0.00000114,0.00000200,-0.00000456,-0.00000103,-0.00000363,0.0
 0000126,0.00000026,-0.00000256,-0.00000243,0.00000026,-0.00000447,-0.0
 0000165,0.00000032,-0.00000091,-0.00000239,-0.00000449,-0.00000712,0.0
 0000243,0.00000097,0.00000202,-0.00000229,0.00000863,0.00000200,-0.000
 00659,-0.00000245,0.00000529,0.00001230,-0.00012089,0.00023878,-0.0001
 0849,0.00014157,-0.00001479,-0.00004968,-0.00000534,-0.00000655,0.0000
 0073,0.00002005,0.00003723,0.00000121,0.00001516,0.00000500,-0.0000025
 9,0.00000782,0.00002431,-0.00001223,0.00000321,-0.00000050,-0.00000107
 ,-0.00000688,-0.00002554,0.00001269,0.00000915,-0.00000211,-0.00000751
 ,0.00005278,0.00006206,0.00001916,-0.00002129,-0.00002538,-0.00000742,
 -0.01288999,-0.00646631,-0.01048930,-0.00424917,0.00154608,0.00360207,
 -0.00094618,-0.00002864,-0.00054882,0.00041134,-0.00058125,0.00038971,
 0.00053582,-0.00061328,-0.00029504,-0.00255769,0.00401057,0.00259960,0
 .00027412,0.00019411,0.00029242,0.00457794,0.00609269,0.00453500,0.002
 06089,-0.00174893,-0.00080525,-0.09957919,-0.10194088,-0.06355536,0.11
 176371,0.10120309,-0.00028078,-0.00010511,0.00101507,-0.00013441,0.000
 30521,-0.00011866,-0.00020162,-0.00024633,-0.00027763,0.00139058,0.000
 92833,0.00023939,-0.00036115,0.00061461,-0.00016860,-0.00076621,0.0000
 9854,-0.00058073,-0.00015501,-0.00012412,0.00021625,0.00070014,-0.0010
 4765,-0.00040042,-0.00127115,0.00029806,-0.00164973,0.00012812,0.00015
 452,-0.00020447,0.00005036,-0.00006543,0.00004105,0.00005482,0.0000505
 5,0.00005207,0.00001313,-0.00004675,0.00000206,0.00000249,0.00000653,-
 0.00000395,0.00000086,-0.00000024,0.00001535,0.00000282,-0.00000076,0.
 00000967,0.00000280,-0.00000379,0.00001324,0.00000424,-0.00000277,0.00
 001074,0.00000222,0.00003777,0.00002702,0.00000364,-0.00000597,0.00000
 261,0.00000387,-0.00008327,-0.00000598,-0.00001498,0.00000487,-0.00003
 690,-0.00000289,-0.00000635,0.00000440,0.00000436,-0.00001174,-0.00001
 169,-0.00000073,-0.00001181,-0.00000535,0.00000834,-0.00003168,-0.0000
 4310,0.00000106,-0.00001833,-0.00000389,0.00006490,0.00000017,0.000067
 80,-0.00000778,-0.00003752,-0.00001660,0.00002684,-0.00006986,-0.00002
 259,0.00000452,0.00002589,0.00009072,0.00001734,0.00004535,-0.00004018
 ,-0.00001186,0.00000163,0.00000441,0.00000209,-0.00000650,-0.00000614,
 0.00000908,0.00000305,-0.00000148,0.00002515,-0.00000368,-0.00000629,0
 .00001071,0.00000823,0.00000266,-0.00000848,-0.00003041,0.00001236,0.0
 0000677,0.00003110,-0.00000152,0.00002384,0.00000020,-0.00000548,-0.00
 000664,-0.00001799,0.00001956,0.00006685,0.00002038,0.00004484,-0.0000
 4124,0.00001248,0.00001119,0.00000344,-0.00000454,0.00000486,0.0000020
 7,0.00001434,-0.00000623,0.00000055,0.00000791,0.00000594,-0.00000154,
 0.00000598,0.00000198,-0.00000130,0.00000552,0.00000502,0.00002078,0.0
 0000142,-0.00000081,-0.00000485,-0.00000027,0.00000139,-0.00000522,0.0
 0000235,0.00000551,0.00001676,-0.00000949,-0.00000304,-0.00006508,-0.0
 0005229,-0.00007126,-0.00004677,-0.00001914,-0.00000640,0.00000230,-0.
 00000203,-0.00000139,-0.00000046,0.00000184,0.00001913,-0.00000132,-0.
 00000390,0.00000791,-0.00001376,0.00000256,-0.00000160,-0.00000210,-0.
 00000086,0.00000190,-0.00001082,-0.00000659,-0.00000070,-0.00000417,0.
 00000181,0.00000530,-0.00003623,-0.00001286,-0.00000247,0.00000152,0.0
 0000628,0.00002633,0.01002402,0.00559423,0.01035236,0.00156047,0.00318
 596,-0.00095924,0.00061974,0.00058999,0.00063723,0.00065634,0.00048537
 ,-0.00064008,0.00006911,-0.00026211,0.00003538,-0.00028266,0.00295266,
 -0.00443852,-0.00105255,-0.00075316,-0.00063709,-0.02138034,-0.0137597
 7,-0.01073427,0.00071381,-0.00062560,0.00081550,-0.10472043,-0.0632444
 2,-0.12726007,0.11457169,0.06522943,0.13454634\\-0.00001194,0.00000917
 ,-0.00000964,0.00000785,0.00001763,-0.00001344,0.00001249,0.00001601,0
 .00001529,-0.00001155,-0.00001857,-0.00001163,-0.00000456,0.00000887,-
 0.00000745,-0.00002501,0.00000568,0.00001097,0.00001942,0.00000613,-0.
 00002290,0.00000891,-0.00001461,0.00001249,0.00003199,-0.00000954,-0.0
 0000355,-0.00002160,-0.00000791,0.00001701,0.00000046,-0.00000134,0.00
 000102,-0.00000361,-0.00001124,-0.00000447,-0.00001120,0.00009320,0.00
 001718,0.00001176,-0.00008802,-0.00001646,0.00002192,0.00002844,0.0000
 6990,-0.00002137,-0.00003431,-0.00007410,0.00003065,-0.00004259,0.0000
 6348,-0.00003196,0.00005072,-0.00006277,0.00000987,-0.00009774,-0.0000
 1160,-0.00000713,0.00009564,0.00001186,-0.00001381,-0.00000433,0.00000
 741,0.00006459,-0.00002364,0.00006633,-0.00006065,0.00001796,-0.000069
 60,0.00004056,-0.00006989,0.00000005,-0.00004447,0.00007602,-0.0000037
 4,-0.00000658,-0.00005799,-0.00005941,0.00000927,0.00005773,0.00006655
 ,-0.00005296,0.00001638,-0.00007299,0.00004794,-0.00001679,0.00006880,
 0.00000682,0.00000432,0.00000965,-0.00000916,0.00000002,-0.00001158,0.
 00000532,-0.00005965,0.00006411,-0.00000924,0.00005938,-0.00006239,0.0
 0007941,-0.00001911,0.00002419,-0.00007866,0.00002260,-0.00003034,0.00
 006555,0.00003383,-0.00003048,-0.00007073,-0.00003861,0.00003294,-0.00
 000228,0.00005872,-0.00006234,0.00000925,-0.00005877,0.00006101,-0.000
 08419,0.00001531,-0.00002476,0.00008438,-0.00002283,0.00003074,0.00000
 023,-0.00000688,0.00000230,0.00008703,-0.00000086,-0.00001944,-0.00008
 816,-0.00000390,0.00001337,0.00003804,0.00006331,0.00002824,-0.0000411
 4,-0.00006069,-0.00002708,-0.00003885,0.00005677,0.00003693,0.00003973
 ,-0.00006346,-0.00004174,-0.00007552,0.00000096,0.00001105,0.00008390,
 0.00000376,-0.00000948,-0.00004444,-0.00006387,-0.00003448,0.00004506,
 0.00006653,0.00003437,0.00000467,0.00000732,0.00000312,0.00006601,-0.0
 0005546,0.00000209,-0.00006470,0.00006111,-0.00000177,-0.00001176,-0.0
 0007882,0.00002427,0.00001440,0.00007688,-0.00002373,-0.00007440,-0.00
 000324,0.00001919,0.00007714,0.00002180,-0.00002234,-0.00006362,0.0000
 3900,0.00000548,0.00006073,-0.00005922,0.00000093,0.00001937,0.0000866
 1,-0.00002191,-0.00001686,-0.00008184,0.00002308,0.00000098,-0.0000036
 1,0.00000453,-0.00006015,-0.00005294,0.00004796,0.00005897,0.00005641,
 -0.00004007,-0.00005249,-0.00002790,-0.00005466,0.00006154,0.00003825,
 0.00004478,-0.00001726,0.00000724,-0.00007079,0.00000812,-0.00001657,0
 .00008127,0.00005384,0.00005600,-0.00003953,-0.00005379,-0.00005708,0.
 00003686,0.00005834,0.00003674,0.00004702,-0.00006075,-0.00003860,-0.0
 0004517\\\@


 LAWS OF PROGRAMMING DEFINITION:  A WORKING PROGRAM
                                  IS ONE THAT HAS
                                  ONLY UNOBSERVED
                                  BUGS.
 Job cpu time:       0 days 19 hours 23 minutes  8.6 seconds.
 File lengths (MBytes):  RWF=   5146 Int=      0 D2E=      0 Chk=     56 Scr=      1
 Normal termination of Gaussian 09 at Fri Apr  3 15:25:11 2020.
