 Entering Gaussian System, Link 0=g09
 Input=ru_znphos_co3_bjd3.com
 Output=ru_znphos_co3_bjd3.log
 Initial command:
 /home/programs/G09_D/g09/l1.exe "/state/partition1/stuart_2020-04-11-1352_20452/Gau-10229.inp" -scrdir="/state/partition1/stuart_2020-04-11-1352_20452/"
 Entering Link 1 = /home/programs/G09_D/g09/l1.exe PID=     10232.
  
 Copyright (c) 1988,1990,1992,1993,1995,1998,2003,2009,2013,
            Gaussian, Inc.  All Rights Reserved.
  
 This is part of the Gaussian(R) 09 program.  It is based on
 the Gaussian(R) 03 system (copyright 2003, Gaussian, Inc.),
 the Gaussian(R) 98 system (copyright 1998, Gaussian, Inc.),
 the Gaussian(R) 94 system (copyright 1995, Gaussian, Inc.),
 the Gaussian 92(TM) system (copyright 1992, Gaussian, Inc.),
 the Gaussian 90(TM) system (copyright 1990, Gaussian, Inc.),
 the Gaussian 88(TM) system (copyright 1988, Gaussian, Inc.),
 the Gaussian 86(TM) system (copyright 1986, Carnegie Mellon
 University), and the Gaussian 82(TM) system (copyright 1983,
 Carnegie Mellon University). Gaussian is a federally registered
 trademark of Gaussian, Inc.
  
 This software contains proprietary and confidential information,
 including trade secrets, belonging to Gaussian, Inc.
  
 This software is provided under written license and may be
 used, copied, transmitted, or stored only in accord with that
 written license.
  
 The following legend is applicable only to US Government
 contracts under FAR:
  
                    RESTRICTED RIGHTS LEGEND
  
 Use, reproduction and disclosure by the US Government is
 subject to restrictions as set forth in subparagraphs (a)
 and (c) of the Commercial Computer Software - Restricted
 Rights clause in FAR 52.227-19.
  
 Gaussian, Inc.
 340 Quinnipiac St., Bldg. 40, Wallingford CT 06492
  
  
 ---------------------------------------------------------------
 Warning -- This program may not be used in any manner that
 competes with the business of Gaussian, Inc. or will provide
 assistance to any competitor of Gaussian, Inc.  The licensee
 of this program is prohibited from giving any competitor of
 Gaussian, Inc. access to this program.  By using this program,
 the user acknowledges that Gaussian, Inc. is engaged in the
 business of creating and licensing software in the field of
 computational chemistry and represents and warrants to the
 licensee that it is not a competitor of Gaussian, Inc. and that
 it will not use this program in any manner prohibited above.
 ---------------------------------------------------------------
  

 Cite this work as:
 Gaussian 09, Revision D.01,
 M. J. Frisch, G. W. Trucks, H. B. Schlegel, G. E. Scuseria, 
 M. A. Robb, J. R. Cheeseman, G. Scalmani, V. Barone, B. Mennucci, 
 G. A. Petersson, H. Nakatsuji, M. Caricato, X. Li, H. P. Hratchian, 
 A. F. Izmaylov, J. Bloino, G. Zheng, J. L. Sonnenberg, M. Hada, 
 M. Ehara, K. Toyota, R. Fukuda, J. Hasegawa, M. Ishida, T. Nakajima, 
 Y. Honda, O. Kitao, H. Nakai, T. Vreven, J. A. Montgomery, Jr., 
 J. E. Peralta, F. Ogliaro, M. Bearpark, J. J. Heyd, E. Brothers, 
 K. N. Kudin, V. N. Staroverov, T. Keith, R. Kobayashi, J. Normand, 
 K. Raghavachari, A. Rendell, J. C. Burant, S. S. Iyengar, J. Tomasi, 
 M. Cossi, N. Rega, J. M. Millam, M. Klene, J. E. Knox, J. B. Cross, 
 V. Bakken, C. Adamo, J. Jaramillo, R. Gomperts, R. E. Stratmann, 
 O. Yazyev, A. J. Austin, R. Cammi, C. Pomelli, J. W. Ochterski, 
 R. L. Martin, K. Morokuma, V. G. Zakrzewski, G. A. Voth, 
 P. Salvador, J. J. Dannenberg, S. Dapprich, A. D. Daniels, 
 O. Farkas, J. B. Foresman, J. V. Ortiz, J. Cioslowski, 
 and D. J. Fox, Gaussian, Inc., Wallingford CT, 2013.
 
 ******************************************
 Gaussian 09:  EM64L-G09RevD.01 24-Apr-2013
                11-Apr-2020 
 ******************************************
 %nproc=8
 Will use up to    8 processors via shared memory.
 %mem=14GB
 --------------------------------------------------------------
 # gen bp86 int=ultrafine pseudo=read empiricaldispersion=gd3bj
 --------------------------------------------------------------
 1/38=1/1;
 2/12=2,17=6,18=5,40=1/2;
 3/5=7,11=2,16=1,17=8,25=1,30=1,74=404,75=-5,124=41/1,2,3;
 4//1;
 5/5=2,38=5/2;
 6/7=2,8=2,9=2,10=2,28=1/1;
 99/5=1,9=1/99;
 -------------------------------
 Ru (PPh3)3 H4 from high temp MD
 -------------------------------
 Symbolic Z-matrix:
 Charge =  0 Multiplicity = 1
 Ru                    0.00004  -0.56342  -0.00041 
 Zn                   -0.00007   2.16189   0.00038 
 P                    -2.375    -0.18561   0.05226 
 P                     2.37508  -0.18554  -0.05229 
 O                     0.00025  -3.66451  -0.00258 
 O                    -0.05992   0.35507  -2.96062 
 O                     0.05983   0.352     2.96075 
 C                     0.00014  -2.49033  -0.00166 
 C                    -0.04393  -0.00555  -1.84122 
 C                     0.04391  -0.00763   1.84105 
 C                    -1.87039   2.58083   0.50736 
 C                    -2.83564   1.54236   0.61505 
 C                    -4.14266   1.78722   1.09101 
 H                    -4.86452   0.96887   1.18335 
 C                    -4.51955   3.08563   1.46528 
 H                    -5.53008   3.27178   1.84436 
 C                    -3.59476   4.13599   1.35568 
 H                    -3.88239   5.15224   1.64864 
 C                    -2.2972    3.87908   0.88211 
 H                    -1.59149   4.7162    0.81679 
 C                     1.87049   2.58131  -0.50534 
 C                     2.29743   3.87986  -0.87891 
 H                     1.59158   4.71686  -0.81353 
 C                     3.5953    4.13725  -1.35133 
 H                     3.88304   5.15373  -1.64339 
 C                     4.52033   3.08709  -1.46091 
 H                     5.53113   3.27364  -1.83905 
 C                     4.14329   1.78837  -1.08787 
 H                     4.86531   0.97015  -1.18022 
 C                     2.83591   1.54302  -0.61312 
 C                    -3.19119  -0.36494  -1.61472 
 C                    -3.87688   0.69882  -2.2322 
 H                    -3.96178   1.66289  -1.72252 
 C                    -4.44974   0.52349  -3.50412 
 H                    -4.976     1.35837  -3.97841 
 C                    -4.34734  -0.71071  -4.16258 
 H                    -4.794    -0.84377  -5.15331 
 C                    -3.66518  -1.77584  -3.54868 
 H                    -3.57871  -2.74119  -4.05809 
 C                    -3.08439  -1.60413  -2.28466 
 H                    -2.54292  -2.43262  -1.81594 
 C                    -3.39461  -1.34248   1.10728 
 C                    -4.73271  -1.64732   0.77373 
 H                    -5.17715  -1.2341   -0.13704 
 C                    -5.49396  -2.49267   1.59675 
 H                    -6.52923  -2.72348   1.32461 
 C                    -4.92904  -3.04435   2.75757 
 H                    -5.52243  -3.70713   3.3958 
 C                    -3.59678  -2.75199   3.09044 
 H                    -3.14467  -3.18701   3.98762 
 C                    -2.83143  -1.91012   2.26864 
 H                    -1.78853  -1.70544   2.52449 
 C                     3.19084  -0.36679   1.61468 
 C                     3.87589   0.69644   2.23377 
 H                     3.96072   1.66115   1.7253 
 C                     4.44827   0.51973   3.50572 
 H                     4.97406   1.35421   3.98126 
 C                     4.34599  -0.71532   4.16261 
 H                     4.79224  -0.84944   5.15339 
 C                     3.66448  -1.77991   3.54709 
 H                     3.57814  -2.74592   4.05527 
 C                     3.08417  -1.60686   2.28303 
 H                     2.54324  -2.43497   1.81302 
 C                     3.39486  -1.34119  -1.10848 
 C                     4.73265  -1.64714  -0.77469 
 H                     5.17675  -1.23559   0.13698 
 C                     5.49399  -2.49143  -1.59871 
 H                     6.52899  -2.72315  -1.32638 
 C                     4.92952  -3.0409   -2.76077 
 H                     5.52301  -3.70284  -3.3998 
 C                     3.59755  -2.74742  -3.09393 
 H                     3.14579  -3.18071  -3.99211 
 C                     2.8321   -1.90665  -2.27112 
 H                     1.78942  -1.70111  -2.52721 
 
 Stoichiometry    C39H28O3P2RuZn
 Framework group  C1[X(C39H28O3P2RuZn)]
 Deg. of freedom   216
 Full point group                 C1      NOp   1
 Largest Abelian subgroup         C1      NOp   1
 Largest concise Abelian subgroup C1      NOp   1
                         Standard orientation:                         
 ---------------------------------------------------------------------
 Center     Atomic      Atomic             Coordinates (Angstroms)
 Number     Number       Type             X           Y           Z
 ---------------------------------------------------------------------
      1         44           0       -0.000040   -0.563420    0.000410
      2         30           0        0.000070    2.161890   -0.000380
      3         15           0        2.375000   -0.185610   -0.052260
      4         15           0       -2.375080   -0.185540    0.052290
      5          8           0       -0.000250   -3.664510    0.002580
      6          8           0        0.059920    0.355070    2.960620
      7          8           0       -0.059830    0.352000   -2.960750
      8          6           0       -0.000140   -2.490330    0.001660
      9          6           0        0.043930   -0.005550    1.841220
     10          6           0       -0.043910   -0.007630   -1.841050
     11          6           0        1.870390    2.580830   -0.507360
     12          6           0        2.835640    1.542360   -0.615050
     13          6           0        4.142660    1.787220   -1.091010
     14          1           0        4.864520    0.968870   -1.183350
     15          6           0        4.519550    3.085630   -1.465280
     16          1           0        5.530080    3.271780   -1.844360
     17          6           0        3.594760    4.135990   -1.355680
     18          1           0        3.882391    5.152240   -1.648640
     19          6           0        2.297200    3.879080   -0.882110
     20          1           0        1.591491    4.716200   -0.816790
     21          6           0       -1.870490    2.581310    0.505340
     22          6           0       -2.297430    3.879860    0.878910
     23          1           0       -1.591579    4.716860    0.813530
     24          6           0       -3.595300    4.137250    1.351330
     25          1           0       -3.883039    5.153730    1.643390
     26          6           0       -4.520330    3.087090    1.460910
     27          1           0       -5.531130    3.273640    1.839050
     28          6           0       -4.143290    1.788370    1.087870
     29          1           0       -4.865310    0.970150    1.180220
     30          6           0       -2.835910    1.543020    0.613120
     31          6           0        3.191190   -0.364940    1.614720
     32          6           0        3.876880    0.698820    2.232200
     33          1           0        3.961780    1.662890    1.722520
     34          6           0        4.449740    0.523490    3.504120
     35          1           0        4.976000    1.358370    3.978410
     36          6           0        4.347340   -0.710710    4.162580
     37          1           0        4.794000   -0.843770    5.153310
     38          6           0        3.665180   -1.775840    3.548680
     39          1           0        3.578710   -2.741190    4.058090
     40          6           0        3.084390   -1.604130    2.284660
     41          1           0        2.542920   -2.432620    1.815940
     42          6           0        3.394610   -1.342480   -1.107280
     43          6           0        4.732710   -1.647320   -0.773730
     44          1           0        5.177150   -1.234100    0.137040
     45          6           0        5.493960   -2.492670   -1.596750
     46          1           0        6.529230   -2.723481   -1.324610
     47          6           0        4.929040   -3.044350   -2.757570
     48          1           0        5.522430   -3.707130   -3.395800
     49          6           0        3.596780   -2.751990   -3.090440
     50          1           0        3.144670   -3.187010   -3.987620
     51          6           0        2.831430   -1.910120   -2.268640
     52          1           0        1.788530   -1.705440   -2.524490
     53          6           0       -3.190840   -0.366790   -1.614680
     54          6           0       -3.875890    0.696440   -2.233770
     55          1           0       -3.960720    1.661150   -1.725300
     56          6           0       -4.448270    0.519730   -3.505720
     57          1           0       -4.974060    1.354210   -3.981260
     58          6           0       -4.345990   -0.715320   -4.162610
     59          1           0       -4.792240   -0.849440   -5.153390
     60          6           0       -3.664480   -1.779910   -3.547090
     61          1           0       -3.578140   -2.745920   -4.055270
     62          6           0       -3.084170   -1.606860   -2.283030
     63          1           0       -2.543240   -2.434970   -1.813020
     64          6           0       -3.394860   -1.341190    1.108480
     65          6           0       -4.732650   -1.647140    0.774690
     66          1           0       -5.176750   -1.235590   -0.136980
     67          6           0       -5.493990   -2.491430    1.598710
     68          1           0       -6.528990   -2.723149    1.326380
     69          6           0       -4.929520   -3.040900    2.760770
     70          1           0       -5.523010   -3.702840    3.399800
     71          6           0       -3.597550   -2.747420    3.093930
     72          1           0       -3.145790   -3.180710    3.992110
     73          6           0       -2.832100   -1.906650    2.271120
     74          1           0       -1.789420   -1.701110    2.527210
 ---------------------------------------------------------------------
 Rotational constants (GHZ):      0.0875518      0.0509758      0.0491328
 General basis read from cards:  (5D, 7F)
 ======================================================================================================
                                       Pseudopotential Parameters
 ======================================================================================================
  Center     Atomic      Valence      Angular      Power
  Number     Number     Electrons     Momentum     of R      Exponent        Coefficient   SO-Coeffient
 ======================================================================================================
    1         44           16
                                      G and up 
                                                     2        1.0000000        0.00000000    0.00000000
                                      S - G
                                                     2       11.1052690      209.82297100    0.00000000
                                                     2        5.4147450       30.65472600    0.00000000
                                      P - G
                                                     2        9.7712710      146.33618200    0.00000000
                                                     2        5.0739910       24.12787700    0.00000000
                                      D - G
                                                     2        7.6714230       67.51589700    0.00000000
                                                     2        4.1365650        9.87010400    0.00000000
                                      F - G
                                                     2       11.3600000      -28.34061600    0.00000000
                                                     2        5.6800000       -4.94462900    0.00000000
    2         30           20
                                      F and up 
                                                     2        1.0000000        0.00000000    0.00000000
                                      S - F
                                                     2       34.1500000      399.98728200    0.00000000
                                                     2       14.5900000       85.48565500    0.00000000
                                      P - F
                                                     2       39.7800000      277.14896000    0.00000000
                                                     2       14.9500000       69.05220500    0.00000000
                                      D - F
                                                     2       43.8000000      -34.14934900    0.00000000
                                                     2       14.9800000       -3.29183100    0.00000000
    3         15            5
                                      F and up 
                                                     2        1.0000000        0.00000000    0.00000000
                                      S - F
                                                     2        2.9405599       26.53226131    0.00000000
                                      P - F
                                                     2        2.2277126       11.49721021    0.00000000
                                      D - F
                                                     2        5.6617060      -16.77278000    0.00000000
    4         15            5
                                      F and up 
                                                     2        1.0000000        0.00000000    0.00000000
                                      S - F
                                                     2        2.9405599       26.53226131    0.00000000
                                      P - F
                                                     2        2.2277126       11.49721021    0.00000000
                                      D - F
                                                     2        5.6617060      -16.77278000    0.00000000
    5          8
                                   No pseudopotential on this center.
    6          8
                                   No pseudopotential on this center.
    7          8
                                   No pseudopotential on this center.
    8          6
                                   No pseudopotential on this center.
    9          6
                                   No pseudopotential on this center.
   10          6
                                   No pseudopotential on this center.
   11          6
                                   No pseudopotential on this center.
   12          6
                                   No pseudopotential on this center.
   13          6
                                   No pseudopotential on this center.
   14          1
                                   No pseudopotential on this center.
   15          6
                                   No pseudopotential on this center.
   16          1
                                   No pseudopotential on this center.
   17          6
                                   No pseudopotential on this center.
   18          1
                                   No pseudopotential on this center.
   19          6
                                   No pseudopotential on this center.
   20          1
                                   No pseudopotential on this center.
   21          6
                                   No pseudopotential on this center.
   22          6
                                   No pseudopotential on this center.
   23          1
                                   No pseudopotential on this center.
   24          6
                                   No pseudopotential on this center.
   25          1
                                   No pseudopotential on this center.
   26          6
                                   No pseudopotential on this center.
   27          1
                                   No pseudopotential on this center.
   28          6
                                   No pseudopotential on this center.
   29          1
                                   No pseudopotential on this center.
   30          6
                                   No pseudopotential on this center.
   31          6
                                   No pseudopotential on this center.
   32          6
                                   No pseudopotential on this center.
   33          1
                                   No pseudopotential on this center.
   34          6
                                   No pseudopotential on this center.
   35          1
                                   No pseudopotential on this center.
   36          6
                                   No pseudopotential on this center.
   37          1
                                   No pseudopotential on this center.
   38          6
                                   No pseudopotential on this center.
   39          1
                                   No pseudopotential on this center.
   40          6
                                   No pseudopotential on this center.
   41          1
                                   No pseudopotential on this center.
   42          6
                                   No pseudopotential on this center.
   43          6
                                   No pseudopotential on this center.
   44          1
                                   No pseudopotential on this center.
   45          6
                                   No pseudopotential on this center.
   46          1
                                   No pseudopotential on this center.
   47          6
                                   No pseudopotential on this center.
   48          1
                                   No pseudopotential on this center.
   49          6
                                   No pseudopotential on this center.
   50          1
                                   No pseudopotential on this center.
   51          6
                                   No pseudopotential on this center.
   52          1
                                   No pseudopotential on this center.
   53          6
                                   No pseudopotential on this center.
   54          6
                                   No pseudopotential on this center.
   55          1
                                   No pseudopotential on this center.
   56          6
                                   No pseudopotential on this center.
   57          1
                                   No pseudopotential on this center.
   58          6
                                   No pseudopotential on this center.
   59          1
                                   No pseudopotential on this center.
   60          6
                                   No pseudopotential on this center.
   61          1
                                   No pseudopotential on this center.
   62          6
                                   No pseudopotential on this center.
   63          1
                                   No pseudopotential on this center.
   64          6
                                   No pseudopotential on this center.
   65          6
                                   No pseudopotential on this center.
   66          1
                                   No pseudopotential on this center.
   67          6
                                   No pseudopotential on this center.
   68          1
                                   No pseudopotential on this center.
   69          6
                                   No pseudopotential on this center.
   70          1
                                   No pseudopotential on this center.
   71          6
                                   No pseudopotential on this center.
   72          1
                                   No pseudopotential on this center.
   73          6
                                   No pseudopotential on this center.
   74          1
                                   No pseudopotential on this center.
 ======================================================================================================
 There are   876 symmetry adapted cartesian basis functions of A   symmetry.
 There are   826 symmetry adapted basis functions of A   symmetry.
   826 basis functions,  1546 primitive gaussians,   876 cartesian basis functions
   166 alpha electrons      166 beta electrons
       nuclear repulsion energy      5970.9434498425 Hartrees.
 NAtoms=   74 NActive=   74 NUniq=   74 SFac= 1.00D+00 NAtFMM=   60 NAOKFM=T Big=T
 Integral buffers will be    131072 words long.
 Raffenetti 2 integral format.
 Two-electron integral symmetry is turned on.
 Nuclear repulsion after empirical dispersion term =     5970.6920599042 Hartrees.
 One-electron integrals computed using PRISM.
   1 Symmetry operations used in ECPInt.
 ECPInt:  NShTT=   42195 NPrTT=  220327 LenC2=   30970 LenP2D=   88347.
 LDataN:  DoStor=T MaxTD1= 6 Len=  172
 NBasis=   826 RedAO= T EigKep=  3.65D-04  NBF=   826
 NBsUse=   826 1.00D-06 EigRej= -1.00D+00 NBFU=   826
 Defaulting to unpruned grid for atomic number  44.
 ExpMin= 1.00D-02 ExpMax= 5.48D+03 ExpMxC= 8.25D+02 IAcc=3 IRadAn=         5 AccDes= 0.00D+00
 Harris functional with IExCor=  404 and IRadAn=       5 diagonalized for initial guess.
 HarFok:  IExCor=  404 AccDes= 0.00D+00 IRadAn=         5 IDoV= 1 UseB2=F ITyADJ=14
 ICtDFT=  3500011 ScaDFX=  1.000000  1.000000  1.000000  1.000000
 Defaulting to unpruned grid for atomic number  44.
 Defaulting to unpruned grid for atomic number  44.
 Defaulting to unpruned grid for atomic number  44.
 Defaulting to unpruned grid for atomic number  44.
 Defaulting to unpruned grid for atomic number  44.
 Defaulting to unpruned grid for atomic number  44.
 Defaulting to unpruned grid for atomic number  44.
 Defaulting to unpruned grid for atomic number  44.
 FoFCou: FMM=F IPFlag=           0 FMFlag=      100000 FMFlg1=        2001
         NFxFlg=           0 DoJE=T BraDBF=F KetDBF=T FulRan=T
         wScrn=  0.000000 ICntrl=     500 IOpCl=  0 I1Cent=   200000004 NGrid=           0
         NMat0=    1 NMatS0=      1 NMatT0=    0 NMatD0=    1 NMtDS0=    0 NMtDT0=    0
 Petite list used in FoFCou.
 Requested convergence on RMS density matrix=1.00D-08 within 128 cycles.
 Requested convergence on MAX density matrix=1.00D-06.
 Requested convergence on             energy=1.00D-06.
 No special actions if energy rises.
 Defaulting to unpruned grid for atomic number  44.
 Defaulting to unpruned grid for atomic number  44.
 Defaulting to unpruned grid for atomic number  44.
 Defaulting to unpruned grid for atomic number  44.
 Defaulting to unpruned grid for atomic number  44.
 Defaulting to unpruned grid for atomic number  44.
 Defaulting to unpruned grid for atomic number  44.
 Defaulting to unpruned grid for atomic number  44.
 EnCoef did     2 forward-backward iterations
 EnCoef did     2 forward-backward iterations
 SCF Done:  E(RB-P86) =  -2064.48355983     A.U. after   18 cycles
            NFock= 18  Conv=0.31D-08     -V/T= 2.0832

 **********************************************************************

            Population analysis using the SCF density.

 **********************************************************************

 Orbital symmetries:
       Occupied  (A) (A) (A) (A) (A) (A) (A) (A) (A) (A) (A) (A)
                 (A) (A) (A) (A) (A) (A) (A) (A) (A) (A) (A) (A)
                 (A) (A) (A) (A) (A) (A) (A) (A) (A) (A) (A) (A)
                 (A) (A) (A) (A) (A) (A) (A) (A) (A) (A) (A) (A)
                 (A) (A) (A) (A) (A) (A) (A) (A) (A) (A) (A) (A)
                 (A) (A) (A) (A) (A) (A) (A) (A) (A) (A) (A) (A)
                 (A) (A) (A) (A) (A) (A) (A) (A) (A) (A) (A) (A)
                 (A) (A) (A) (A) (A) (A) (A) (A) (A) (A) (A) (A)
                 (A) (A) (A) (A) (A) (A) (A) (A) (A) (A) (A) (A)
                 (A) (A) (A) (A) (A) (A) (A) (A) (A) (A) (A) (A)
                 (A) (A) (A) (A) (A) (A) (A) (A) (A) (A) (A) (A)
                 (A) (A) (A) (A) (A) (A) (A) (A) (A) (A) (A) (A)
                 (A) (A) (A) (A) (A) (A) (A) (A) (A) (A) (A) (A)
                 (A) (A) (A) (A) (A) (A) (A) (A) (A) (A)
       Virtual   (A) (A) (A) (A) (A) (A) (A) (A) (A) (A) (A) (A)
                 (A) (A) (A) (A) (A) (A) (A) (A) (A) (A) (A) (A)
                 (A) (A) (A) (A) (A) (A) (A) (A) (A) (A) (A) (A)
                 (A) (A) (A) (A) (A) (A) (A) (A) (A) (A) (A) (A)
                 (A) (A) (A) (A) (A) (A) (A) (A) (A) (A) (A) (A)
                 (A) (A) (A) (A) (A) (A) (A) (A) (A) (A) (A) (A)
                 (A) (A) (A) (A) (A) (A) (A) (A) (A) (A) (A) (A)
                 (A) (A) (A) (A) (A) (A) (A) (A) (A) (A) (A) (A)
                 (A) (A) (A) (A) (A) (A) (A) (A) (A) (A) (A) (A)
                 (A) (A) (A) (A) (A) (A) (A) (A) (A) (A) (A) (A)
                 (A) (A) (A) (A) (A) (A) (A) (A) (A) (A) (A) (A)
                 (A) (A) (A) (A) (A) (A) (A) (A) (A) (A) (A) (A)
                 (A) (A) (A) (A) (A) (A) (A) (A) (A) (A) (A) (A)
                 (A) (A) (A) (A) (A) (A) (A) (A) (A) (A) (A) (A)
                 (A) (A) (A) (A) (A) (A) (A) (A) (A) (A) (A) (A)
                 (A) (A) (A) (A) (A) (A) (A) (A) (A) (A) (A) (A)
                 (A) (A) (A) (A) (A) (A) (A) (A) (A) (A) (A) (A)
                 (A) (A) (A) (A) (A) (A) (A) (A) (A) (A) (A) (A)
                 (A) (A) (A) (A) (A) (A) (A) (A) (A) (A) (A) (A)
                 (A) (A) (A) (A) (A) (A) (A) (A) (A) (A) (A) (A)
                 (A) (A) (A) (A) (A) (A) (A) (A) (A) (A) (A) (A)
                 (A) (A) (A) (A) (A) (A) (A) (A) (A) (A) (A) (A)
                 (A) (A) (A) (A) (A) (A) (A) (A) (A) (A) (A) (A)
                 (A) (A) (A) (A) (A) (A) (A) (A) (A) (A) (A) (A)
                 (A) (A) (A) (A) (A) (A) (A) (A) (A) (A) (A) (A)
                 (A) (A) (A) (A) (A) (A) (A) (A) (A) (A) (A) (A)
                 (A) (A) (A) (A) (A) (A) (A) (A) (A) (A) (A) (A)
                 (A) (A) (A) (A) (A) (A) (A) (A) (A) (A) (A) (A)
                 (A) (A) (A) (A) (A) (A) (A) (A) (A) (A) (A) (A)
                 (A) (A) (A) (A) (A) (A) (A) (A) (A) (A) (A) (A)
                 (A) (A) (A) (A) (A) (A) (A) (A) (A) (A) (A) (A)
                 (A) (A) (A) (A) (A) (A) (A) (A) (A) (A) (A) (A)
                 (A) (A) (A) (A) (A) (A) (A) (A) (A) (A) (A) (A)
                 (A) (A) (A) (A) (A) (A) (A) (A) (A) (A) (A) (A)
                 (A) (A) (A) (A) (A) (A) (A) (A) (A) (A) (A) (A)
                 (A) (A) (A) (A) (A) (A) (A) (A) (A) (A) (A) (A)
                 (A) (A) (A) (A) (A) (A) (A) (A) (A) (A) (A) (A)
                 (A) (A) (A) (A) (A) (A) (A) (A) (A) (A) (A) (A)
                 (A) (A) (A) (A) (A) (A) (A) (A) (A) (A) (A) (A)
                 (A) (A) (A) (A) (A) (A) (A) (A) (A) (A) (A) (A)
                 (A) (A) (A) (A) (A) (A) (A) (A) (A) (A) (A) (A)
                 (A) (A) (A) (A) (A) (A) (A) (A) (A) (A) (A) (A)
                 (A) (A) (A) (A) (A) (A) (A) (A) (A) (A) (A) (A)
                 (A) (A) (A) (A) (A) (A) (A) (A) (A) (A) (A) (A)
                 (A) (A) (A) (A) (A) (A) (A) (A) (A) (A) (A) (A)
                 (A) (A) (A) (A) (A) (A) (A) (A) (A) (A) (A) (A)
                 (A) (A) (A) (A) (A) (A) (A) (A) (A) (A) (A) (A)
                 (A) (A) (A) (A) (A) (A) (A) (A) (A) (A) (A) (A)
                 (A) (A) (A) (A) (A) (A) (A) (A) (A) (A) (A) (A)
                 (A) (A) (A) (A) (A) (A) (A) (A) (A) (A) (A) (A)
                 (A) (A) (A) (A) (A) (A) (A) (A) (A) (A) (A) (A)
                 (A) (A) (A) (A) (A) (A) (A) (A) (A) (A) (A) (A)
                 (A) (A) (A) (A) (A) (A) (A) (A) (A) (A) (A) (A)
                 (A) (A) (A) (A) (A) (A) (A) (A) (A) (A) (A) (A)
                 (A) (A) (A) (A) (A) (A) (A) (A) (A) (A) (A) (A)
 The electronic state is 1-A.
 Alpha  occ. eigenvalues --  -18.84505 -18.84502 -18.84476 -10.00616 -10.00614
 Alpha  occ. eigenvalues --  -10.00440  -9.93394  -9.93394  -9.93209  -9.93209
 Alpha  occ. eigenvalues --   -9.92661  -9.92661  -9.92505  -9.92504  -9.92455
 Alpha  occ. eigenvalues --   -9.92454  -9.92421  -9.92420  -9.92403  -9.92402
 Alpha  occ. eigenvalues --   -9.92324  -9.92323  -9.92320  -9.92320  -9.92317
 Alpha  occ. eigenvalues --   -9.92317  -9.92270  -9.92270  -9.92251  -9.92250
 Alpha  occ. eigenvalues --   -9.92210  -9.92210  -9.91603  -9.91603  -9.91364
 Alpha  occ. eigenvalues --   -9.91364  -9.91231  -9.91231  -9.90801  -9.90800
 Alpha  occ. eigenvalues --   -9.89678  -9.89675  -4.80553  -3.04223  -3.03797
 Alpha  occ. eigenvalues --   -3.03370  -2.88966  -1.77702  -1.76691  -1.76053
 Alpha  occ. eigenvalues --   -1.00553  -1.00534  -1.00496  -0.78593  -0.78582
 Alpha  occ. eigenvalues --   -0.77897  -0.77897  -0.76541  -0.76510  -0.70631
 Alpha  occ. eigenvalues --   -0.70563  -0.68118  -0.68115  -0.67961  -0.67961
 Alpha  occ. eigenvalues --   -0.67677  -0.67674  -0.66701  -0.66687  -0.66109
 Alpha  occ. eigenvalues --   -0.65941  -0.59895  -0.59633  -0.55245  -0.55215
 Alpha  occ. eigenvalues --   -0.54996  -0.54983  -0.54327  -0.54275  -0.53542
 Alpha  occ. eigenvalues --   -0.53469  -0.52869  -0.52610  -0.51256  -0.50345
 Alpha  occ. eigenvalues --   -0.49976  -0.48478  -0.48331  -0.46952  -0.46799
 Alpha  occ. eigenvalues --   -0.46135  -0.45973  -0.44450  -0.43945  -0.41410
 Alpha  occ. eigenvalues --   -0.41240  -0.41191  -0.41066  -0.40820  -0.40567
 Alpha  occ. eigenvalues --   -0.40468  -0.40140  -0.40125  -0.39892  -0.39819
 Alpha  occ. eigenvalues --   -0.39439  -0.39395  -0.39096  -0.38852  -0.38544
 Alpha  occ. eigenvalues --   -0.38347  -0.38310  -0.38002  -0.37940  -0.37939
 Alpha  occ. eigenvalues --   -0.37843  -0.37665  -0.37571  -0.37333  -0.37287
 Alpha  occ. eigenvalues --   -0.37278  -0.37187  -0.36838  -0.36654  -0.36442
 Alpha  occ. eigenvalues --   -0.36019  -0.35996  -0.35335  -0.34822  -0.34036
 Alpha  occ. eigenvalues --   -0.33367  -0.33212  -0.33017  -0.32943  -0.32374
 Alpha  occ. eigenvalues --   -0.32191  -0.31789  -0.31667  -0.31020  -0.30746
 Alpha  occ. eigenvalues --   -0.30545  -0.30519  -0.30232  -0.29509  -0.29260
 Alpha  occ. eigenvalues --   -0.28322  -0.28254  -0.26489  -0.26196  -0.24341
 Alpha  occ. eigenvalues --   -0.24035  -0.23444  -0.23438  -0.23269  -0.23192
 Alpha  occ. eigenvalues --   -0.23158  -0.22898  -0.22664  -0.22111  -0.22088
 Alpha  occ. eigenvalues --   -0.21953  -0.21492  -0.21364  -0.20839  -0.20089
 Alpha  occ. eigenvalues --   -0.16568
 Alpha virt. eigenvalues --   -0.06620  -0.06477  -0.06088  -0.05853  -0.05532
 Alpha virt. eigenvalues --   -0.05171  -0.05067  -0.04856  -0.04643  -0.04227
 Alpha virt. eigenvalues --   -0.03945  -0.03794  -0.02989  -0.02827  -0.02468
 Alpha virt. eigenvalues --   -0.01832  -0.01081  -0.00845  -0.00671  -0.00065
 Alpha virt. eigenvalues --    0.01514   0.02969   0.03254   0.03632   0.03634
 Alpha virt. eigenvalues --    0.04316   0.04913   0.05009   0.05870   0.06092
 Alpha virt. eigenvalues --    0.06756   0.07052   0.07382   0.07911   0.07942
 Alpha virt. eigenvalues --    0.08408   0.09138   0.09331   0.09517   0.09825
 Alpha virt. eigenvalues --    0.10295   0.10661   0.10833   0.11123   0.11279
 Alpha virt. eigenvalues --    0.11853   0.11996   0.12064   0.12319   0.12583
 Alpha virt. eigenvalues --    0.12769   0.12797   0.13413   0.13428   0.14053
 Alpha virt. eigenvalues --    0.14061   0.14638   0.14898   0.15107   0.15392
 Alpha virt. eigenvalues --    0.15579   0.15737   0.16277   0.16564   0.16838
 Alpha virt. eigenvalues --    0.17272   0.17542   0.17962   0.18546   0.19218
 Alpha virt. eigenvalues --    0.19402   0.20074   0.20888   0.21280   0.21688
 Alpha virt. eigenvalues --    0.21793   0.22574   0.22752   0.23578   0.23773
 Alpha virt. eigenvalues --    0.23849   0.23884   0.24642   0.25197   0.25485
 Alpha virt. eigenvalues --    0.25652   0.25785   0.26186   0.26228   0.26624
 Alpha virt. eigenvalues --    0.26765   0.26960   0.27308   0.27340   0.28110
 Alpha virt. eigenvalues --    0.28210   0.28312   0.28803   0.29365   0.29479
 Alpha virt. eigenvalues --    0.29733   0.30915   0.31362   0.31572   0.32677
 Alpha virt. eigenvalues --    0.33295   0.33475   0.34309   0.35237   0.36708
 Alpha virt. eigenvalues --    0.36712   0.37831   0.38666   0.38810   0.39703
 Alpha virt. eigenvalues --    0.40918   0.41431   0.42402   0.42685   0.44551
 Alpha virt. eigenvalues --    0.45743   0.46087   0.46956   0.47603   0.47949
 Alpha virt. eigenvalues --    0.48279   0.48290   0.48574   0.48826   0.49142
 Alpha virt. eigenvalues --    0.49261   0.49372   0.49708   0.49798   0.49987
 Alpha virt. eigenvalues --    0.50250   0.50310   0.50564   0.50710   0.51673
 Alpha virt. eigenvalues --    0.51808   0.51844   0.51927   0.52111   0.52259
 Alpha virt. eigenvalues --    0.52408   0.52724   0.53389   0.53998   0.54112
 Alpha virt. eigenvalues --    0.54118   0.54344   0.54559   0.55002   0.55069
 Alpha virt. eigenvalues --    0.55552   0.55609   0.55620   0.55786   0.56012
 Alpha virt. eigenvalues --    0.56505   0.56593   0.56645   0.56952   0.57058
 Alpha virt. eigenvalues --    0.57612   0.57711   0.57951   0.58135   0.58725
 Alpha virt. eigenvalues --    0.58776   0.59255   0.59555   0.59703   0.59769
 Alpha virt. eigenvalues --    0.60159   0.60876   0.61093   0.61508   0.61862
 Alpha virt. eigenvalues --    0.61984   0.62805   0.62919   0.63019   0.64051
 Alpha virt. eigenvalues --    0.64243   0.64424   0.65527   0.65640   0.67108
 Alpha virt. eigenvalues --    0.67305   0.67943   0.68112   0.68847   0.69575
 Alpha virt. eigenvalues --    0.69918   0.70591   0.70722   0.71668   0.71933
 Alpha virt. eigenvalues --    0.72420   0.72423   0.73089   0.73597   0.74304
 Alpha virt. eigenvalues --    0.74822   0.75530   0.75875   0.76041   0.76285
 Alpha virt. eigenvalues --    0.76318   0.76481   0.76735   0.76867   0.76890
 Alpha virt. eigenvalues --    0.77090   0.77198   0.77554   0.77650   0.77674
 Alpha virt. eigenvalues --    0.78568   0.79268   0.79501   0.79764   0.80035
 Alpha virt. eigenvalues --    0.80095   0.80482   0.80707   0.80747   0.81139
 Alpha virt. eigenvalues --    0.81356   0.82716   0.82847   0.83208   0.83323
 Alpha virt. eigenvalues --    0.83996   0.84266   0.84633   0.84906   0.85195
 Alpha virt. eigenvalues --    0.85468   0.85633   0.85834   0.86353   0.86589
 Alpha virt. eigenvalues --    0.86923   0.87314   0.87715   0.87835   0.88397
 Alpha virt. eigenvalues --    0.88770   0.89331   0.89459   0.89844   0.90128
 Alpha virt. eigenvalues --    0.90892   0.90984   0.91098   0.91872   0.93182
 Alpha virt. eigenvalues --    0.93243   0.94296   0.94677   0.94691   0.95000
 Alpha virt. eigenvalues --    0.95052   0.95882   0.96744   0.96941   0.98130
 Alpha virt. eigenvalues --    0.98366   0.98628   1.00015   1.00085   1.01231
 Alpha virt. eigenvalues --    1.01389   1.01644   1.01944   1.02239   1.03056
 Alpha virt. eigenvalues --    1.03410   1.04489   1.04890   1.05460   1.05709
 Alpha virt. eigenvalues --    1.05955   1.06594   1.06605   1.07381   1.08029
 Alpha virt. eigenvalues --    1.08496   1.08931   1.09165   1.09797   1.10300
 Alpha virt. eigenvalues --    1.10398   1.10421   1.10891   1.12148   1.12203
 Alpha virt. eigenvalues --    1.13181   1.13808   1.14021   1.15321   1.15532
 Alpha virt. eigenvalues --    1.15791   1.16347   1.18853   1.19179   1.19247
 Alpha virt. eigenvalues --    1.19629   1.19978   1.20540   1.20927   1.21158
 Alpha virt. eigenvalues --    1.21779   1.22557   1.24272   1.24370   1.24737
 Alpha virt. eigenvalues --    1.25309   1.25318   1.27347   1.27944   1.28337
 Alpha virt. eigenvalues --    1.28538   1.29866   1.29890   1.30371   1.31207
 Alpha virt. eigenvalues --    1.31209   1.31510   1.32353   1.32665   1.32756
 Alpha virt. eigenvalues --    1.33528   1.33560   1.33898   1.34000   1.34161
 Alpha virt. eigenvalues --    1.34237   1.34810   1.35121   1.35207   1.35807
 Alpha virt. eigenvalues --    1.35983   1.36163   1.36788   1.36925   1.37718
 Alpha virt. eigenvalues --    1.37963   1.38073   1.38797   1.39084   1.39353
 Alpha virt. eigenvalues --    1.40356   1.40522   1.41593   1.41981   1.43052
 Alpha virt. eigenvalues --    1.43609   1.43723   1.44737   1.44843   1.46549
 Alpha virt. eigenvalues --    1.46907   1.48209   1.49409   1.49823   1.50567
 Alpha virt. eigenvalues --    1.51646   1.52370   1.53411   1.54961   1.55507
 Alpha virt. eigenvalues --    1.55546   1.56860   1.57568   1.58315   1.59702
 Alpha virt. eigenvalues --    1.60545   1.61616   1.61960   1.62097   1.63066
 Alpha virt. eigenvalues --    1.64546   1.64893   1.65899   1.68035   1.69195
 Alpha virt. eigenvalues --    1.69857   1.70038   1.70621   1.70932   1.71095
 Alpha virt. eigenvalues --    1.71354   1.71773   1.72211   1.72470   1.72923
 Alpha virt. eigenvalues --    1.73067   1.73866   1.73899   1.74289   1.74516
 Alpha virt. eigenvalues --    1.74824   1.77897   1.77955   1.79148   1.79480
 Alpha virt. eigenvalues --    1.80772   1.81013   1.81999   1.82823   1.82906
 Alpha virt. eigenvalues --    1.83718   1.83937   1.84273   1.84506   1.84587
 Alpha virt. eigenvalues --    1.85682   1.86003   1.86133   1.86482   1.86587
 Alpha virt. eigenvalues --    1.87248   1.88167   1.88970   1.89309   1.89653
 Alpha virt. eigenvalues --    1.89849   1.90254   1.90323   1.90378   1.90578
 Alpha virt. eigenvalues --    1.91019   1.91077   1.91370   1.91400   1.91816
 Alpha virt. eigenvalues --    1.92152   1.92646   1.92672   1.93176   1.93464
 Alpha virt. eigenvalues --    1.93475   1.93567   1.94194   1.94714   1.94908
 Alpha virt. eigenvalues --    1.95795   1.95969   1.96447   1.96980   1.97046
 Alpha virt. eigenvalues --    1.97680   1.97975   1.98147   1.99638   1.99722
 Alpha virt. eigenvalues --    2.00067   2.01057   2.02352   2.02451   2.02552
 Alpha virt. eigenvalues --    2.03767   2.04104   2.04491   2.04721   2.05000
 Alpha virt. eigenvalues --    2.05373   2.06249   2.06740   2.09834   2.11631
 Alpha virt. eigenvalues --    2.11663   2.14433   2.18912   2.19026   2.19073
 Alpha virt. eigenvalues --    2.19091   2.20970   2.20986   2.21339   2.21413
 Alpha virt. eigenvalues --    2.21715   2.21739   2.22365   2.22511   2.25295
 Alpha virt. eigenvalues --    2.25470   2.26800   2.26822   2.27667   2.27709
 Alpha virt. eigenvalues --    2.27884   2.27893   2.29244   2.29332   2.29461
 Alpha virt. eigenvalues --    2.29650   2.29688   2.30327   2.30505   2.30866
 Alpha virt. eigenvalues --    2.31116   2.31187   2.32881   2.33040   2.33248
 Alpha virt. eigenvalues --    2.33345   2.35385   2.35490   2.35764   2.35813
 Alpha virt. eigenvalues --    2.38308   2.38402   2.38768   2.38867   2.39134
 Alpha virt. eigenvalues --    2.39296   2.39493   2.40124   2.40293   2.41523
 Alpha virt. eigenvalues --    2.42105   2.43221   2.43250   2.43545   2.43740
 Alpha virt. eigenvalues --    2.43835   2.44112   2.44408   2.44571   2.44920
 Alpha virt. eigenvalues --    2.45531   2.46301   2.46456   2.46906   2.48398
 Alpha virt. eigenvalues --    2.48478   2.48871   2.49169   2.49719   2.50095
 Alpha virt. eigenvalues --    2.50420   2.50900   2.51610   2.52190   2.52285
 Alpha virt. eigenvalues --    2.52647   2.53176   2.53562   2.54007   2.54130
 Alpha virt. eigenvalues --    2.54158   2.54306   2.54851   2.54913   2.55299
 Alpha virt. eigenvalues --    2.55423   2.55821   2.56131   2.56584   2.57207
 Alpha virt. eigenvalues --    2.58011   2.58788   2.59320   2.60431   2.60800
 Alpha virt. eigenvalues --    2.61682   2.61861   2.62859   2.63293   2.63379
 Alpha virt. eigenvalues --    2.63476   2.64213   2.64319   2.64951   2.66436
 Alpha virt. eigenvalues --    2.67049   2.67385   2.68430   2.68453   2.70628
 Alpha virt. eigenvalues --    2.71209   2.72129   2.72227   2.72524   2.73002
 Alpha virt. eigenvalues --    2.73517   2.82926   2.85609   2.85624   2.85860
 Alpha virt. eigenvalues --    2.86037   2.88576   2.89865   2.92161   2.92235
 Alpha virt. eigenvalues --    2.94745   2.95275   2.95926   2.96325   2.99294
 Alpha virt. eigenvalues --    3.03429   3.05628   3.07979   3.08942   3.09008
 Alpha virt. eigenvalues --    3.09236   3.09835   3.11005   3.13361   3.13410
 Alpha virt. eigenvalues --    3.13716   3.13734   3.14340   3.14519   3.15688
 Alpha virt. eigenvalues --    3.16055   3.16223   3.16431   3.16730   3.17088
 Alpha virt. eigenvalues --    3.18546   3.19631   3.21300   3.21364   3.21624
 Alpha virt. eigenvalues --    3.21646   3.23453   3.23830   3.30964   3.31114
 Alpha virt. eigenvalues --    3.31894   3.32061   3.37317   3.37481   3.41355
 Alpha virt. eigenvalues --    3.41371   3.41700   3.42043   3.71583   3.71644
 Alpha virt. eigenvalues --    3.76644   3.76678   3.77332   3.77367   4.01712
 Alpha virt. eigenvalues --    5.92353   5.95151  34.71513  35.07510  35.15399
 Alpha virt. eigenvalues --   46.05932  68.61174  68.79512  68.81565  88.47842
          Condensed to atoms (all electrons):
 Mulliken charges:
               1
     1  Ru  -0.687253
     2  Zn   0.040921
     3  P    0.165539
     4  P    0.165527
     5  O   -0.289122
     6  O   -0.270769
     7  O   -0.270734
     8  C    0.370964
     9  C    0.270155
    10  C    0.270199
    11  C    0.074357
    12  C   -0.053256
    13  C   -0.095598
    14  H    0.099079
    15  C   -0.113115
    16  H    0.099526
    17  C   -0.088908
    18  H    0.098122
    19  C   -0.152717
    20  H    0.100548
    21  C    0.074382
    22  C   -0.152710
    23  H    0.100544
    24  C   -0.088906
    25  H    0.098122
    26  C   -0.113126
    27  H    0.099528
    28  C   -0.095578
    29  H    0.099088
    30  C   -0.053261
    31  C    0.004473
    32  C   -0.112892
    33  H    0.124830
    34  C   -0.100806
    35  H    0.107264
    36  C   -0.094425
    37  H    0.105017
    38  C   -0.103203
    39  H    0.108334
    40  C   -0.104043
    41  H    0.136593
    42  C    0.019634
    43  C   -0.119712
    44  H    0.119693
    45  C   -0.105018
    46  H    0.106186
    47  C   -0.093863
    48  H    0.105984
    49  C   -0.102725
    50  H    0.111016
    51  C   -0.097294
    52  H    0.134200
    53  C    0.004436
    54  C   -0.112880
    55  H    0.124831
    56  C   -0.100803
    57  H    0.107267
    58  C   -0.094416
    59  H    0.105018
    60  C   -0.103210
    61  H    0.108331
    62  C   -0.104044
    63  H    0.136594
    64  C    0.019640
    65  C   -0.119730
    66  H    0.119688
    67  C   -0.105000
    68  H    0.106182
    69  C   -0.093871
    70  H    0.105981
    71  C   -0.102727
    72  H    0.111019
    73  C   -0.097295
    74  H    0.134197
 Sum of Mulliken charges =   0.00000
 Mulliken charges with hydrogens summed into heavy atoms:
               1
     1  Ru  -0.687253
     2  Zn   0.040921
     3  P    0.165539
     4  P    0.165527
     5  O   -0.289122
     6  O   -0.270769
     7  O   -0.270734
     8  C    0.370964
     9  C    0.270155
    10  C    0.270199
    11  C    0.074357
    12  C   -0.053256
    13  C    0.003480
    15  C   -0.013589
    17  C    0.009214
    19  C   -0.052169
    21  C    0.074382
    22  C   -0.052166
    24  C    0.009217
    26  C   -0.013599
    28  C    0.003510
    30  C   -0.053261
    31  C    0.004473
    32  C    0.011938
    34  C    0.006459
    36  C    0.010591
    38  C    0.005131
    40  C    0.032549
    42  C    0.019634
    43  C   -0.000018
    45  C    0.001168
    47  C    0.012121
    49  C    0.008291
    51  C    0.036906
    53  C    0.004436
    54  C    0.011952
    56  C    0.006464
    58  C    0.010602
    60  C    0.005122
    62  C    0.032550
    64  C    0.019640
    65  C   -0.000042
    67  C    0.001182
    69  C    0.012110
    71  C    0.008292
    73  C    0.036903
 Electronic spatial extent (au):  <R**2>=          24874.9390
 Charge=              0.0000 electrons
 Dipole moment (field-independent basis, Debye):
    X=              0.0002    Y=             -1.0222    Z=             -0.0008  Tot=              1.0222
 Quadrupole moment (field-independent basis, Debye-Ang):
   XX=           -251.0188   YY=           -285.2133   ZZ=           -285.3629
   XY=              0.0052   XZ=              4.9008   YZ=              0.0049
 Traceless Quadrupole moment (field-independent basis, Debye-Ang):
   XX=             22.8462   YY=            -11.3483   ZZ=            -11.4979
   XY=              0.0052   XZ=              4.9008   YZ=              0.0049
 Octapole moment (field-independent basis, Debye-Ang**2):
  XXX=              0.0425  YYY=            104.4527  ZZZ=              0.1277  XYY=              0.0156
  XXY=            -25.7467  XXZ=              0.0167  XZZ=             -0.0310  YZZ=            -65.3881
  YYZ=             -0.1387  XYZ=             19.8979
 Hexadecapole moment (field-independent basis, Debye-Ang**3):
 XXXX=         -18093.2089 YYYY=          -7786.1018 ZZZZ=          -7071.9178 XXXY=              0.0774
 XXXZ=            -78.8456 YYYX=             -0.3101 YYYZ=              0.4391 ZZZX=            373.9250
 ZZZY=             -0.3294 XXYY=          -4147.1718 XXZZ=          -3966.7443 YYZZ=          -2324.0237
 XXYZ=              0.0156 YYXZ=           -191.9583 ZZXY=              0.4203
 N-N= 5.970692059904D+03 E-N=-1.674083592606D+04  KE= 1.905988097530D+03
 1\1\GINC-COMP01\SP\RBP86\Gen\C39H28O3P2Ru1Zn1\STUART\11-Apr-2020\0\\# 
 gen bp86 int=ultrafine pseudo=read empiricaldispersion=gd3bj\\Ru (PPh3
 )3 H4 from high temp MD\\0,1\Ru,0,0.00004,-0.56342,-0.00041\Zn,0,-0.00
 007,2.16189,0.00038\P,0,-2.375,-0.18561,0.05226\P,0,2.37508,-0.18554,-
 0.05229\O,0,0.00025,-3.66451,-0.00258\O,0,-0.05992,0.35507,-2.96062\O,
 0,0.05983,0.352,2.96075\C,0,0.00014,-2.49033,-0.00166\C,0,-0.04393,-0.
 00555,-1.84122\C,0,0.04391,-0.00763,1.84105\C,0,-1.87039,2.58083,0.507
 36\C,0,-2.83564,1.54236,0.61505\C,0,-4.14266,1.78722,1.09101\H,0,-4.86
 452,0.96887,1.18335\C,0,-4.51955,3.08563,1.46528\H,0,-5.53008,3.27178,
 1.84436\C,0,-3.59476,4.13599,1.35568\H,0,-3.88239,5.15224,1.64864\C,0,
 -2.2972,3.87908,0.88211\H,0,-1.59149,4.7162,0.81679\C,0,1.87049,2.5813
 1,-0.50534\C,0,2.29743,3.87986,-0.87891\H,0,1.59158,4.71686,-0.81353\C
 ,0,3.5953,4.13725,-1.35133\H,0,3.88304,5.15373,-1.64339\C,0,4.52033,3.
 08709,-1.46091\H,0,5.53113,3.27364,-1.83905\C,0,4.14329,1.78837,-1.087
 87\H,0,4.86531,0.97015,-1.18022\C,0,2.83591,1.54302,-0.61312\C,0,-3.19
 119,-0.36494,-1.61472\C,0,-3.87688,0.69882,-2.2322\H,0,-3.96178,1.6628
 9,-1.72252\C,0,-4.44974,0.52349,-3.50412\H,0,-4.976,1.35837,-3.97841\C
 ,0,-4.34734,-0.71071,-4.16258\H,0,-4.794,-0.84377,-5.15331\C,0,-3.6651
 8,-1.77584,-3.54868\H,0,-3.57871,-2.74119,-4.05809\C,0,-3.08439,-1.604
 13,-2.28466\H,0,-2.54292,-2.43262,-1.81594\C,0,-3.39461,-1.34248,1.107
 28\C,0,-4.73271,-1.64732,0.77373\H,0,-5.17715,-1.2341,-0.13704\C,0,-5.
 49396,-2.49267,1.59675\H,0,-6.52923,-2.72348,1.32461\C,0,-4.92904,-3.0
 4435,2.75757\H,0,-5.52243,-3.70713,3.3958\C,0,-3.59678,-2.75199,3.0904
 4\H,0,-3.14467,-3.18701,3.98762\C,0,-2.83143,-1.91012,2.26864\H,0,-1.7
 8853,-1.70544,2.52449\C,0,3.19084,-0.36679,1.61468\C,0,3.87589,0.69644
 ,2.23377\H,0,3.96072,1.66115,1.7253\C,0,4.44827,0.51973,3.50572\H,0,4.
 97406,1.35421,3.98126\C,0,4.34599,-0.71532,4.16261\H,0,4.79224,-0.8494
 4,5.15339\C,0,3.66448,-1.77991,3.54709\H,0,3.57814,-2.74592,4.05527\C,
 0,3.08417,-1.60686,2.28303\H,0,2.54324,-2.43497,1.81302\C,0,3.39486,-1
 .34119,-1.10848\C,0,4.73265,-1.64714,-0.77469\H,0,5.17675,-1.23559,0.1
 3698\C,0,5.49399,-2.49143,-1.59871\H,0,6.52899,-2.72315,-1.32638\C,0,4
 .92952,-3.0409,-2.76077\H,0,5.52301,-3.70284,-3.3998\C,0,3.59755,-2.74
 742,-3.09393\H,0,3.14579,-3.18071,-3.99211\C,0,2.8321,-1.90665,-2.2711
 2\H,0,1.78942,-1.70111,-2.52721\\Version=EM64L-G09RevD.01\State=1-A\HF
 =-2064.4835598\RMSD=3.115e-09\Dipole=-0.0000868,-0.4021772,0.000318\Qu
 adrupole=16.9855756,-8.4371821,-8.5483935,-0.0038698,3.6436173,-0.0036
 11\PG=C01 [X(C39H28O3P2Ru1Zn1)]\\@


 KEEP CLOSE TO NATURES HEART, YOURSELF;
 AND BREAK CLEAR AWAY, ONCE IN A WHILE, AND
 CLIMB A MOUNTAIN OR SPEND A WEEK IN THE
 WOODS.  WASH YOUR SPIRIT CLEAN...
                                         -- JOHN MUIR
 Job cpu time:       0 days  1 hours 17 minutes 36.3 seconds.
 File lengths (MBytes):  RWF=    352 Int=      0 D2E=      0 Chk=     25 Scr=      1
 Normal termination of Gaussian 09 at Sat Apr 11 14:02:50 2020.
