 Entering Gaussian System, Link 0=g09
 Input=ru_znphos_co3_benzene.com
 Output=ru_znphos_co3_benzene.log
 Initial command:
 /home/programs/G09_D/g09/l1.exe "/state/partition1/stuart_2020-04-11-1352_11053/Gau-10230.inp" -scrdir="/state/partition1/stuart_2020-04-11-1352_11053/"
 Entering Link 1 = /home/programs/G09_D/g09/l1.exe PID=     10231.
  
 Copyright (c) 1988,1990,1992,1993,1995,1998,2003,2009,2013,
            Gaussian, Inc.  All Rights Reserved.
  
 This is part of the Gaussian(R) 09 program.  It is based on
 the Gaussian(R) 03 system (copyright 2003, Gaussian, Inc.),
 the Gaussian(R) 98 system (copyright 1998, Gaussian, Inc.),
 the Gaussian(R) 94 system (copyright 1995, Gaussian, Inc.),
 the Gaussian 92(TM) system (copyright 1992, Gaussian, Inc.),
 the Gaussian 90(TM) system (copyright 1990, Gaussian, Inc.),
 the Gaussian 88(TM) system (copyright 1988, Gaussian, Inc.),
 the Gaussian 86(TM) system (copyright 1986, Carnegie Mellon
 University), and the Gaussian 82(TM) system (copyright 1983,
 Carnegie Mellon University). Gaussian is a federally registered
 trademark of Gaussian, Inc.
  
 This software contains proprietary and confidential information,
 including trade secrets, belonging to Gaussian, Inc.
  
 This software is provided under written license and may be
 used, copied, transmitted, or stored only in accord with that
 written license.
  
 The following legend is applicable only to US Government
 contracts under FAR:
  
                    RESTRICTED RIGHTS LEGEND
  
 Use, reproduction and disclosure by the US Government is
 subject to restrictions as set forth in subparagraphs (a)
 and (c) of the Commercial Computer Software - Restricted
 Rights clause in FAR 52.227-19.
  
 Gaussian, Inc.
 340 Quinnipiac St., Bldg. 40, Wallingford CT 06492
  
  
 ---------------------------------------------------------------
 Warning -- This program may not be used in any manner that
 competes with the business of Gaussian, Inc. or will provide
 assistance to any competitor of Gaussian, Inc.  The licensee
 of this program is prohibited from giving any competitor of
 Gaussian, Inc. access to this program.  By using this program,
 the user acknowledges that Gaussian, Inc. is engaged in the
 business of creating and licensing software in the field of
 computational chemistry and represents and warrants to the
 licensee that it is not a competitor of Gaussian, Inc. and that
 it will not use this program in any manner prohibited above.
 ---------------------------------------------------------------
  

 Cite this work as:
 Gaussian 09, Revision D.01,
 M. J. Frisch, G. W. Trucks, H. B. Schlegel, G. E. Scuseria, 
 M. A. Robb, J. R. Cheeseman, G. Scalmani, V. Barone, B. Mennucci, 
 G. A. Petersson, H. Nakatsuji, M. Caricato, X. Li, H. P. Hratchian, 
 A. F. Izmaylov, J. Bloino, G. Zheng, J. L. Sonnenberg, M. Hada, 
 M. Ehara, K. Toyota, R. Fukuda, J. Hasegawa, M. Ishida, T. Nakajima, 
 Y. Honda, O. Kitao, H. Nakai, T. Vreven, J. A. Montgomery, Jr., 
 J. E. Peralta, F. Ogliaro, M. Bearpark, J. J. Heyd, E. Brothers, 
 K. N. Kudin, V. N. Staroverov, T. Keith, R. Kobayashi, J. Normand, 
 K. Raghavachari, A. Rendell, J. C. Burant, S. S. Iyengar, J. Tomasi, 
 M. Cossi, N. Rega, J. M. Millam, M. Klene, J. E. Knox, J. B. Cross, 
 V. Bakken, C. Adamo, J. Jaramillo, R. Gomperts, R. E. Stratmann, 
 O. Yazyev, A. J. Austin, R. Cammi, C. Pomelli, J. W. Ochterski, 
 R. L. Martin, K. Morokuma, V. G. Zakrzewski, G. A. Voth, 
 P. Salvador, J. J. Dannenberg, S. Dapprich, A. D. Daniels, 
 O. Farkas, J. B. Foresman, J. V. Ortiz, J. Cioslowski, 
 and D. J. Fox, Gaussian, Inc., Wallingford CT, 2013.
 
 ******************************************
 Gaussian 09:  EM64L-G09RevD.01 24-Apr-2013
                11-Apr-2020 
 ******************************************
 %nproc=8
 Will use up to    8 processors via shared memory.
 %mem=14GB
 ---------------------------------------------------------------------
 #p bp86 gen pseudo=read int=grid=ultrafine scrf=(pcm,solvent=benzene)
 ---------------------------------------------------------------------
 1/38=1/1;
 2/12=2,17=6,18=5,40=1/2;
 3/5=7,11=2,16=1,17=8,25=1,30=1,70=2201,72=12,74=404,75=-5/1,2,3;
 4//1;
 5/5=2,38=5,53=12/2;
 6/7=2,8=2,9=2,10=2,28=1/1;
 99/5=1,9=1/99;
 Leave Link    1 at Sat Apr 11 13:53:02 2020, MaxMem=  1879048192 cpu:         0.4
 (Enter /home/programs/G09_D/g09/l101.exe)
 -------------------------------
 Ru (PPh3)3 H4 from high temp MD
 -------------------------------
 Symbolic Z-matrix:
 Charge =  0 Multiplicity = 1
 Ru                    0.00004  -0.56342  -0.00041 
 Zn                   -0.00007   2.16189   0.00038 
 P                    -2.375    -0.18561   0.05226 
 P                     2.37508  -0.18554  -0.05229 
 O                     0.00025  -3.66451  -0.00258 
 O                    -0.05992   0.35507  -2.96062 
 O                     0.05983   0.352     2.96075 
 C                     0.00014  -2.49033  -0.00166 
 C                    -0.04393  -0.00555  -1.84122 
 C                     0.04391  -0.00763   1.84105 
 C                    -1.87039   2.58083   0.50736 
 C                    -2.83564   1.54236   0.61505 
 C                    -4.14266   1.78722   1.09101 
 H                    -4.86452   0.96887   1.18335 
 C                    -4.51955   3.08563   1.46528 
 H                    -5.53008   3.27178   1.84436 
 C                    -3.59476   4.13599   1.35568 
 H                    -3.88239   5.15224   1.64864 
 C                    -2.2972    3.87908   0.88211 
 H                    -1.59149   4.7162    0.81679 
 C                     1.87049   2.58131  -0.50534 
 C                     2.29743   3.87986  -0.87891 
 H                     1.59158   4.71686  -0.81353 
 C                     3.5953    4.13725  -1.35133 
 H                     3.88304   5.15373  -1.64339 
 C                     4.52033   3.08709  -1.46091 
 H                     5.53113   3.27364  -1.83905 
 C                     4.14329   1.78837  -1.08787 
 H                     4.86531   0.97015  -1.18022 
 C                     2.83591   1.54302  -0.61312 
 C                    -3.19119  -0.36494  -1.61472 
 C                    -3.87688   0.69882  -2.2322 
 H                    -3.96178   1.66289  -1.72252 
 C                    -4.44974   0.52349  -3.50412 
 H                    -4.976     1.35837  -3.97841 
 C                    -4.34734  -0.71071  -4.16258 
 H                    -4.794    -0.84377  -5.15331 
 C                    -3.66518  -1.77584  -3.54868 
 H                    -3.57871  -2.74119  -4.05809 
 C                    -3.08439  -1.60413  -2.28466 
 H                    -2.54292  -2.43262  -1.81594 
 C                    -3.39461  -1.34248   1.10728 
 C                    -4.73271  -1.64732   0.77373 
 H                    -5.17715  -1.2341   -0.13704 
 C                    -5.49396  -2.49267   1.59675 
 H                    -6.52923  -2.72348   1.32461 
 C                    -4.92904  -3.04435   2.75757 
 H                    -5.52243  -3.70713   3.3958 
 C                    -3.59678  -2.75199   3.09044 
 H                    -3.14467  -3.18701   3.98762 
 C                    -2.83143  -1.91012   2.26864 
 H                    -1.78853  -1.70544   2.52449 
 C                     3.19084  -0.36679   1.61468 
 C                     3.87589   0.69644   2.23377 
 H                     3.96072   1.66115   1.7253 
 C                     4.44827   0.51973   3.50572 
 H                     4.97406   1.35421   3.98126 
 C                     4.34599  -0.71532   4.16261 
 H                     4.79224  -0.84944   5.15339 
 C                     3.66448  -1.77991   3.54709 
 H                     3.57814  -2.74592   4.05527 
 C                     3.08417  -1.60686   2.28303 
 H                     2.54324  -2.43497   1.81302 
 C                     3.39486  -1.34119  -1.10848 
 C                     4.73265  -1.64714  -0.77469 
 H                     5.17675  -1.23559   0.13698 
 C                     5.49399  -2.49143  -1.59871 
 H                     6.52899  -2.72315  -1.32638 
 C                     4.92952  -3.0409   -2.76077 
 H                     5.52301  -3.70284  -3.3998 
 C                     3.59755  -2.74742  -3.09393 
 H                     3.14579  -3.18071  -3.99211 
 C                     2.8321   -1.90665  -2.27112 
 H                     1.78942  -1.70111  -2.52721 
 
 NAtoms=     74 NQM=       74 NQMF=       0 NMMI=      0 NMMIF=      0
                NMic=       0 NMicF=      0.
                    Isotopes and Nuclear Properties:
 (Nuclear quadrupole moments (NQMom) in fm**2, nuclear magnetic moments (NMagM)
  in nuclear magnetons)

  Atom         1           2           3           4           5           6           7           8           9          10
 IAtWgt=         102          64          31          31          16          16          16          12          12          12
 AtmWgt= 101.9037000  63.9291454  30.9737634  30.9737634  15.9949146  15.9949146  15.9949146  12.0000000  12.0000000  12.0000000
 NucSpn=           0           0           1           1           0           0           0           0           0           0
 AtZEff=   0.0000000   0.0000000   0.0000000   0.0000000   0.0000000   0.0000000   0.0000000   0.0000000   0.0000000   0.0000000
 NQMom=    0.0000000   0.0000000   0.0000000   0.0000000   0.0000000   0.0000000   0.0000000   0.0000000   0.0000000   0.0000000
 NMagM=    0.0000000   0.0000000   1.1316000   1.1316000   0.0000000   0.0000000   0.0000000   0.0000000   0.0000000   0.0000000
 AtZNuc=  44.0000000  30.0000000  15.0000000  15.0000000   8.0000000   8.0000000   8.0000000   6.0000000   6.0000000   6.0000000

  Atom        11          12          13          14          15          16          17          18          19          20
 IAtWgt=          12          12          12           1          12           1          12           1          12           1
 AtmWgt=  12.0000000  12.0000000  12.0000000   1.0078250  12.0000000   1.0078250  12.0000000   1.0078250  12.0000000   1.0078250
 NucSpn=           0           0           0           1           0           1           0           1           0           1
 AtZEff=   0.0000000   0.0000000   0.0000000   0.0000000   0.0000000   0.0000000   0.0000000   0.0000000   0.0000000   0.0000000
 NQMom=    0.0000000   0.0000000   0.0000000   0.0000000   0.0000000   0.0000000   0.0000000   0.0000000   0.0000000   0.0000000
 NMagM=    0.0000000   0.0000000   0.0000000   2.7928460   0.0000000   2.7928460   0.0000000   2.7928460   0.0000000   2.7928460
 AtZNuc=   6.0000000   6.0000000   6.0000000   1.0000000   6.0000000   1.0000000   6.0000000   1.0000000   6.0000000   1.0000000

  Atom        21          22          23          24          25          26          27          28          29          30
 IAtWgt=          12          12           1          12           1          12           1          12           1          12
 AtmWgt=  12.0000000  12.0000000   1.0078250  12.0000000   1.0078250  12.0000000   1.0078250  12.0000000   1.0078250  12.0000000
 NucSpn=           0           0           1           0           1           0           1           0           1           0
 AtZEff=   0.0000000   0.0000000   0.0000000   0.0000000   0.0000000   0.0000000   0.0000000   0.0000000   0.0000000   0.0000000
 NQMom=    0.0000000   0.0000000   0.0000000   0.0000000   0.0000000   0.0000000   0.0000000   0.0000000   0.0000000   0.0000000
 NMagM=    0.0000000   0.0000000   2.7928460   0.0000000   2.7928460   0.0000000   2.7928460   0.0000000   2.7928460   0.0000000
 AtZNuc=   6.0000000   6.0000000   1.0000000   6.0000000   1.0000000   6.0000000   1.0000000   6.0000000   1.0000000   6.0000000

  Atom        31          32          33          34          35          36          37          38          39          40
 IAtWgt=          12          12           1          12           1          12           1          12           1          12
 AtmWgt=  12.0000000  12.0000000   1.0078250  12.0000000   1.0078250  12.0000000   1.0078250  12.0000000   1.0078250  12.0000000
 NucSpn=           0           0           1           0           1           0           1           0           1           0
 AtZEff=   0.0000000   0.0000000   0.0000000   0.0000000   0.0000000   0.0000000   0.0000000   0.0000000   0.0000000   0.0000000
 NQMom=    0.0000000   0.0000000   0.0000000   0.0000000   0.0000000   0.0000000   0.0000000   0.0000000   0.0000000   0.0000000
 NMagM=    0.0000000   0.0000000   2.7928460   0.0000000   2.7928460   0.0000000   2.7928460   0.0000000   2.7928460   0.0000000
 AtZNuc=   6.0000000   6.0000000   1.0000000   6.0000000   1.0000000   6.0000000   1.0000000   6.0000000   1.0000000   6.0000000

  Atom        41          42          43          44          45          46          47          48          49          50
 IAtWgt=           1          12          12           1          12           1          12           1          12           1
 AtmWgt=   1.0078250  12.0000000  12.0000000   1.0078250  12.0000000   1.0078250  12.0000000   1.0078250  12.0000000   1.0078250
 NucSpn=           1           0           0           1           0           1           0           1           0           1
 AtZEff=   0.0000000   0.0000000   0.0000000   0.0000000   0.0000000   0.0000000   0.0000000   0.0000000   0.0000000   0.0000000
 NQMom=    0.0000000   0.0000000   0.0000000   0.0000000   0.0000000   0.0000000   0.0000000   0.0000000   0.0000000   0.0000000
 NMagM=    2.7928460   0.0000000   0.0000000   2.7928460   0.0000000   2.7928460   0.0000000   2.7928460   0.0000000   2.7928460
 AtZNuc=   1.0000000   6.0000000   6.0000000   1.0000000   6.0000000   1.0000000   6.0000000   1.0000000   6.0000000   1.0000000

  Atom        51          52          53          54          55          56          57          58          59          60
 IAtWgt=          12           1          12          12           1          12           1          12           1          12
 AtmWgt=  12.0000000   1.0078250  12.0000000  12.0000000   1.0078250  12.0000000   1.0078250  12.0000000   1.0078250  12.0000000
 NucSpn=           0           1           0           0           1           0           1           0           1           0
 AtZEff=   0.0000000   0.0000000   0.0000000   0.0000000   0.0000000   0.0000000   0.0000000   0.0000000   0.0000000   0.0000000
 NQMom=    0.0000000   0.0000000   0.0000000   0.0000000   0.0000000   0.0000000   0.0000000   0.0000000   0.0000000   0.0000000
 NMagM=    0.0000000   2.7928460   0.0000000   0.0000000   2.7928460   0.0000000   2.7928460   0.0000000   2.7928460   0.0000000
 AtZNuc=   6.0000000   1.0000000   6.0000000   6.0000000   1.0000000   6.0000000   1.0000000   6.0000000   1.0000000   6.0000000

  Atom        61          62          63          64          65          66          67          68          69          70
 IAtWgt=           1          12           1          12          12           1          12           1          12           1
 AtmWgt=   1.0078250  12.0000000   1.0078250  12.0000000  12.0000000   1.0078250  12.0000000   1.0078250  12.0000000   1.0078250
 NucSpn=           1           0           1           0           0           1           0           1           0           1
 AtZEff=   0.0000000   0.0000000   0.0000000   0.0000000   0.0000000   0.0000000   0.0000000   0.0000000   0.0000000   0.0000000
 NQMom=    0.0000000   0.0000000   0.0000000   0.0000000   0.0000000   0.0000000   0.0000000   0.0000000   0.0000000   0.0000000
 NMagM=    2.7928460   0.0000000   2.7928460   0.0000000   0.0000000   2.7928460   0.0000000   2.7928460   0.0000000   2.7928460
 AtZNuc=   1.0000000   6.0000000   1.0000000   6.0000000   6.0000000   1.0000000   6.0000000   1.0000000   6.0000000   1.0000000

  Atom        71          72          73          74
 IAtWgt=          12           1          12           1
 AtmWgt=  12.0000000   1.0078250  12.0000000   1.0078250
 NucSpn=           0           1           0           1
 AtZEff=   0.0000000   0.0000000   0.0000000   0.0000000
 NQMom=    0.0000000   0.0000000   0.0000000   0.0000000
 NMagM=    0.0000000   2.7928460   0.0000000   2.7928460
 AtZNuc=   6.0000000   1.0000000   6.0000000   1.0000000
 Leave Link  101 at Sat Apr 11 13:53:03 2020, MaxMem=  1879048192 cpu:         1.1
 (Enter /home/programs/G09_D/g09/l202.exe)
 Stoichiometry    C39H28O3P2RuZn
 Framework group  C1[X(C39H28O3P2RuZn)]
 Deg. of freedom   216
 Full point group                 C1      NOp   1
 Largest Abelian subgroup         C1      NOp   1
 Largest concise Abelian subgroup C1      NOp   1
                         Standard orientation:                         
 ---------------------------------------------------------------------
 Center     Atomic      Atomic             Coordinates (Angstroms)
 Number     Number       Type             X           Y           Z
 ---------------------------------------------------------------------
      1         44           0       -0.000040   -0.563420    0.000410
      2         30           0        0.000070    2.161890   -0.000380
      3         15           0        2.375000   -0.185610   -0.052260
      4         15           0       -2.375080   -0.185540    0.052290
      5          8           0       -0.000250   -3.664510    0.002580
      6          8           0        0.059920    0.355070    2.960620
      7          8           0       -0.059830    0.352000   -2.960750
      8          6           0       -0.000140   -2.490330    0.001660
      9          6           0        0.043930   -0.005550    1.841220
     10          6           0       -0.043910   -0.007630   -1.841050
     11          6           0        1.870390    2.580830   -0.507360
     12          6           0        2.835640    1.542360   -0.615050
     13          6           0        4.142660    1.787220   -1.091010
     14          1           0        4.864520    0.968870   -1.183350
     15          6           0        4.519550    3.085630   -1.465280
     16          1           0        5.530080    3.271780   -1.844360
     17          6           0        3.594760    4.135990   -1.355680
     18          1           0        3.882391    5.152240   -1.648640
     19          6           0        2.297200    3.879080   -0.882110
     20          1           0        1.591491    4.716200   -0.816790
     21          6           0       -1.870490    2.581310    0.505340
     22          6           0       -2.297430    3.879860    0.878910
     23          1           0       -1.591579    4.716860    0.813530
     24          6           0       -3.595300    4.137250    1.351330
     25          1           0       -3.883039    5.153730    1.643390
     26          6           0       -4.520330    3.087090    1.460910
     27          1           0       -5.531130    3.273640    1.839050
     28          6           0       -4.143290    1.788370    1.087870
     29          1           0       -4.865310    0.970150    1.180220
     30          6           0       -2.835910    1.543020    0.613120
     31          6           0        3.191190   -0.364940    1.614720
     32          6           0        3.876880    0.698820    2.232200
     33          1           0        3.961780    1.662890    1.722520
     34          6           0        4.449740    0.523490    3.504120
     35          1           0        4.976000    1.358370    3.978410
     36          6           0        4.347340   -0.710710    4.162580
     37          1           0        4.794000   -0.843770    5.153310
     38          6           0        3.665180   -1.775840    3.548680
     39          1           0        3.578710   -2.741190    4.058090
     40          6           0        3.084390   -1.604130    2.284660
     41          1           0        2.542920   -2.432620    1.815940
     42          6           0        3.394610   -1.342480   -1.107280
     43          6           0        4.732710   -1.647320   -0.773730
     44          1           0        5.177150   -1.234100    0.137040
     45          6           0        5.493960   -2.492670   -1.596750
     46          1           0        6.529230   -2.723481   -1.324610
     47          6           0        4.929040   -3.044350   -2.757570
     48          1           0        5.522430   -3.707130   -3.395800
     49          6           0        3.596780   -2.751990   -3.090440
     50          1           0        3.144670   -3.187010   -3.987620
     51          6           0        2.831430   -1.910120   -2.268640
     52          1           0        1.788530   -1.705440   -2.524490
     53          6           0       -3.190840   -0.366790   -1.614680
     54          6           0       -3.875890    0.696440   -2.233770
     55          1           0       -3.960720    1.661150   -1.725300
     56          6           0       -4.448270    0.519730   -3.505720
     57          1           0       -4.974060    1.354210   -3.981260
     58          6           0       -4.345990   -0.715320   -4.162610
     59          1           0       -4.792240   -0.849440   -5.153390
     60          6           0       -3.664480   -1.779910   -3.547090
     61          1           0       -3.578140   -2.745920   -4.055270
     62          6           0       -3.084170   -1.606860   -2.283030
     63          1           0       -2.543240   -2.434970   -1.813020
     64          6           0       -3.394860   -1.341190    1.108480
     65          6           0       -4.732650   -1.647140    0.774690
     66          1           0       -5.176750   -1.235590   -0.136980
     67          6           0       -5.493990   -2.491430    1.598710
     68          1           0       -6.528990   -2.723149    1.326380
     69          6           0       -4.929520   -3.040900    2.760770
     70          1           0       -5.523010   -3.702840    3.399800
     71          6           0       -3.597550   -2.747420    3.093930
     72          1           0       -3.145790   -3.180710    3.992110
     73          6           0       -2.832100   -1.906650    2.271120
     74          1           0       -1.789420   -1.701110    2.527210
 ---------------------------------------------------------------------
 Rotational constants (GHZ):      0.0875518      0.0509758      0.0491328
 Leave Link  202 at Sat Apr 11 13:53:03 2020, MaxMem=  1879048192 cpu:         0.1
 (Enter /home/programs/G09_D/g09/l301.exe)
 General basis read from cards:  (5D, 7F)
 Centers:       8      9     10     11     12     13     15     17     19     21
 Centers:      22     24     26     28     30     31     32     34     36     38
 Centers:      40     42     43     45     47     49     51     53     54     56
 Centers:      58     60     62     64     65     67     69     71     73
 6-31G**
 *****
 Centers:      14     16     18     20     23     25     27     29     33     35
 Centers:      37     39     41     44     46     48     50     52     55     57
 Centers:      59     61     63     66     68     70     72     74
 6-31G**
 *****
 Centers:       5      6      7
 6-31G**
 *****
 Centers:       3      4
 SDDALL
 D 1 1.
     Exponent=  3.8700000000D-01 Coefficients=  1.0000000000D+00
 *****
 Centers:       1
 SDDALL
 *****
 Centers:       2
 SDDALL
 *****
 ======================================================================================================
                                       Pseudopotential Parameters
 ======================================================================================================
  Center     Atomic      Valence      Angular      Power
  Number     Number     Electrons     Momentum     of R      Exponent        Coefficient   SO-Coeffient
 ======================================================================================================
    1         44           16
                                      G and up 
                                                     2        1.0000000        0.00000000    0.00000000
                                      S - G
                                                     2       11.1052690      209.82297100    0.00000000
                                                     2        5.4147450       30.65472600    0.00000000
                                      P - G
                                                     2        9.7712710      146.33618200    0.00000000
                                                     2        5.0739910       24.12787700    0.00000000
                                      D - G
                                                     2        7.6714230       67.51589700    0.00000000
                                                     2        4.1365650        9.87010400    0.00000000
                                      F - G
                                                     2       11.3600000      -28.34061600    0.00000000
                                                     2        5.6800000       -4.94462900    0.00000000
    2         30           20
                                      F and up 
                                                     2        1.0000000        0.00000000    0.00000000
                                      S - F
                                                     2       34.1500000      399.98728200    0.00000000
                                                     2       14.5900000       85.48565500    0.00000000
                                      P - F
                                                     2       39.7800000      277.14896000    0.00000000
                                                     2       14.9500000       69.05220500    0.00000000
                                      D - F
                                                     2       43.8000000      -34.14934900    0.00000000
                                                     2       14.9800000       -3.29183100    0.00000000
    3         15            5
                                      F and up 
                                                     2        1.0000000        0.00000000    0.00000000
                                      S - F
                                                     2        2.9405599       26.53226131    0.00000000
                                      P - F
                                                     2        2.2277126       11.49721021    0.00000000
                                      D - F
                                                     2        5.6617060      -16.77278000    0.00000000
    4         15            5
                                      F and up 
                                                     2        1.0000000        0.00000000    0.00000000
                                      S - F
                                                     2        2.9405599       26.53226131    0.00000000
                                      P - F
                                                     2        2.2277126       11.49721021    0.00000000
                                      D - F
                                                     2        5.6617060      -16.77278000    0.00000000
    5          8
                                   No pseudopotential on this center.
    6          8
                                   No pseudopotential on this center.
    7          8
                                   No pseudopotential on this center.
    8          6
                                   No pseudopotential on this center.
    9          6
                                   No pseudopotential on this center.
   10          6
                                   No pseudopotential on this center.
   11          6
                                   No pseudopotential on this center.
   12          6
                                   No pseudopotential on this center.
   13          6
                                   No pseudopotential on this center.
   14          1
                                   No pseudopotential on this center.
   15          6
                                   No pseudopotential on this center.
   16          1
                                   No pseudopotential on this center.
   17          6
                                   No pseudopotential on this center.
   18          1
                                   No pseudopotential on this center.
   19          6
                                   No pseudopotential on this center.
   20          1
                                   No pseudopotential on this center.
   21          6
                                   No pseudopotential on this center.
   22          6
                                   No pseudopotential on this center.
   23          1
                                   No pseudopotential on this center.
   24          6
                                   No pseudopotential on this center.
   25          1
                                   No pseudopotential on this center.
   26          6
                                   No pseudopotential on this center.
   27          1
                                   No pseudopotential on this center.
   28          6
                                   No pseudopotential on this center.
   29          1
                                   No pseudopotential on this center.
   30          6
                                   No pseudopotential on this center.
   31          6
                                   No pseudopotential on this center.
   32          6
                                   No pseudopotential on this center.
   33          1
                                   No pseudopotential on this center.
   34          6
                                   No pseudopotential on this center.
   35          1
                                   No pseudopotential on this center.
   36          6
                                   No pseudopotential on this center.
   37          1
                                   No pseudopotential on this center.
   38          6
                                   No pseudopotential on this center.
   39          1
                                   No pseudopotential on this center.
   40          6
                                   No pseudopotential on this center.
   41          1
                                   No pseudopotential on this center.
   42          6
                                   No pseudopotential on this center.
   43          6
                                   No pseudopotential on this center.
   44          1
                                   No pseudopotential on this center.
   45          6
                                   No pseudopotential on this center.
   46          1
                                   No pseudopotential on this center.
   47          6
                                   No pseudopotential on this center.
   48          1
                                   No pseudopotential on this center.
   49          6
                                   No pseudopotential on this center.
   50          1
                                   No pseudopotential on this center.
   51          6
                                   No pseudopotential on this center.
   52          1
                                   No pseudopotential on this center.
   53          6
                                   No pseudopotential on this center.
   54          6
                                   No pseudopotential on this center.
   55          1
                                   No pseudopotential on this center.
   56          6
                                   No pseudopotential on this center.
   57          1
                                   No pseudopotential on this center.
   58          6
                                   No pseudopotential on this center.
   59          1
                                   No pseudopotential on this center.
   60          6
                                   No pseudopotential on this center.
   61          1
                                   No pseudopotential on this center.
   62          6
                                   No pseudopotential on this center.
   63          1
                                   No pseudopotential on this center.
   64          6
                                   No pseudopotential on this center.
   65          6
                                   No pseudopotential on this center.
   66          1
                                   No pseudopotential on this center.
   67          6
                                   No pseudopotential on this center.
   68          1
                                   No pseudopotential on this center.
   69          6
                                   No pseudopotential on this center.
   70          1
                                   No pseudopotential on this center.
   71          6
                                   No pseudopotential on this center.
   72          1
                                   No pseudopotential on this center.
   73          6
                                   No pseudopotential on this center.
   74          1
                                   No pseudopotential on this center.
 ======================================================================================================
 Ernie: Thresh=  0.10000D-02 Tol=  0.10000D-05 Strict=F.
 There are   876 symmetry adapted cartesian basis functions of A   symmetry.
 There are   826 symmetry adapted basis functions of A   symmetry.
   826 basis functions,  1546 primitive gaussians,   876 cartesian basis functions
   166 alpha electrons      166 beta electrons
       nuclear repulsion energy      5970.9434498425 Hartrees.
 IExCor=  404 DFT=T Ex=B Corr=P86 ExCW=0 ScaHFX=  0.000000
 ScaDFX=  1.000000  1.000000  1.000000  1.000000 ScalE2=  1.000000  1.000000
 IRadAn=      5 IRanWt=     -1 IRanGd=            0 ICorTp=0 IEmpDi=  4
 NAtoms=   74 NActive=   74 NUniq=   74 SFac= 1.00D+00 NAtFMM=   60 NAOKFM=T Big=T
 Integral buffers will be    131072 words long.
 Raffenetti 2 integral format.
 Two-electron integral symmetry is turned on.
 ------------------------------------------------------------------------------
 Polarizable Continuum Model (PCM)
 =================================
 Model                : PCM (using non-symmetric T matrix).
 Atomic radii         : UFF (Universal Force Field).
 Polarization charges : Total charges.
 Charge compensation  : None.
 Solution method      : On-the-fly selection.
 Cavity type          : Scaled VdW (van der Waals Surface) (Alpha=1.100).
 Cavity algorithm     : GePol (No added spheres)
                        Default sphere list used, NSphG=   74.
                        Lebedev-Laikov grids with approx.  5.0 points / Ang**2.
                        Smoothing algorithm: Karplus/York (Gamma=1.0000).
                        Polarization charges: spherical gaussians, with
                                              point-specific exponents (IZeta= 3).
                        Self-potential: point-specific (ISelfS= 7).
                        Self-field    : sphere-specific E.n sum rule (ISelfD= 2).
 Solvent              : Benzene, Eps=   2.270600 Eps(inf)=   2.253301
 ------------------------------------------------------------------------------
 GePol: Number of generator spheres                  =      74
 GePol: Total number of spheres                      =      74
 GePol: Number of exposed spheres                    =      73 ( 98.65%)
 GePol: Number of points                             =    5505
 GePol: Average weight of points                     =       0.13
 GePol: Minimum weight of points                     =   0.23D-10
 GePol: Maximum weight of points                     =    0.21981
 GePol: Number of points with low weight             =     390
 GePol: Fraction of low-weight points (<1% of avg)   =       7.08%
 GePol: Cavity surface area                          =    705.058 Ang**2
 GePol: Cavity volume                                =    860.574 Ang**3
 Leave Link  301 at Sat Apr 11 13:53:03 2020, MaxMem=  1879048192 cpu:         0.9
 (Enter /home/programs/G09_D/g09/l302.exe)
 NPDir=0 NMtPBC=     1 NCelOv=     1 NCel=       1 NClECP=     1 NCelD=      1
         NCelK=      1 NCelE2=     1 NClLst=     1 CellRange=     0.0.
 One-electron integrals computed using PRISM.
   1 Symmetry operations used in ECPInt.
 ECPInt:  NShTT=   42195 NPrTT=  220327 LenC2=   30970 LenP2D=   88347.
 LDataN:  DoStor=T MaxTD1= 6 Len=  172
 NBasis=   826 RedAO= T EigKep=  3.65D-04  NBF=   826
 NBsUse=   826 1.00D-06 EigRej= -1.00D+00 NBFU=   826
 Precomputing XC quadrature grid using
 IXCGrd= 4 IRadAn=           5 IRanWt=          -1 IRanGd=           0 AccXCQ= 0.00D+00.
 Defaulting to unpruned grid for atomic number  44.
 Generated NRdTot=       0 NPtTot=           0 NUsed=           0 NTot=          32
 NSgBfM=   822   825   828   828   831 MxSgAt=    74 MxSgA2=    74.
 Leave Link  302 at Sat Apr 11 13:53:08 2020, MaxMem=  1879048192 cpu:        36.1
 (Enter /home/programs/G09_D/g09/l303.exe)
 DipDrv:  MaxL=1.
 Leave Link  303 at Sat Apr 11 13:53:09 2020, MaxMem=  1879048192 cpu:         1.3
 (Enter /home/programs/G09_D/g09/l401.exe)
 ExpMin= 1.00D-02 ExpMax= 5.48D+03 ExpMxC= 8.25D+02 IAcc=3 IRadAn=         5 AccDes= 0.00D+00
 Harris functional with IExCor=  404 and IRadAn=       5 diagonalized for initial guess.
 HarFok:  IExCor=  404 AccDes= 0.00D+00 IRadAn=         5 IDoV= 1 UseB2=F ITyADJ=14
 ICtDFT=  3500011 ScaDFX=  1.000000  1.000000  1.000000  1.000000
 Defaulting to unpruned grid for atomic number  44.
 Defaulting to unpruned grid for atomic number  44.
 Defaulting to unpruned grid for atomic number  44.
 Defaulting to unpruned grid for atomic number  44.
 Defaulting to unpruned grid for atomic number  44.
 Defaulting to unpruned grid for atomic number  44.
 Defaulting to unpruned grid for atomic number  44.
 Defaulting to unpruned grid for atomic number  44.
 FoFCou: FMM=F IPFlag=           0 FMFlag=      100000 FMFlg1=        2001
         NFxFlg=           0 DoJE=T BraDBF=F KetDBF=T FulRan=T
         wScrn=  0.000000 ICntrl=     500 IOpCl=  0 I1Cent=   200000004 NGrid=           0
         NMat0=    1 NMatS0=      1 NMatT0=    0 NMatD0=    1 NMtDS0=    0 NMtDT0=    0
 Petite list used in FoFCou.
 Harris En= -2064.79180073504    
 JPrj=0 DoOrth=F DoCkMO=F.
 Leave Link  401 at Sat Apr 11 13:53:25 2020, MaxMem=  1879048192 cpu:       127.9
 (Enter /home/programs/G09_D/g09/l502.exe)
 Closed shell SCF:
 Using DIIS extrapolation, IDIIS=  1040.
 Integral symmetry usage will be decided dynamically.
 IVT=     2334206 IEndB=     2334206 NGot=  1879048192 MDV=  1877498879
 LenX=  1877498879 LenY=  1876730627
 Requested convergence on RMS density matrix=1.00D-08 within 128 cycles.
 Requested convergence on MAX density matrix=1.00D-06.
 Requested convergence on             energy=1.00D-06.
 No special actions if energy rises.
 Fock matrices will be formed incrementally for  20 cycles.

 Cycle   1  Pass 1  IDiag  1:
 FoFJK:  IHMeth= 1 ICntrl=     500 DoSepK=F KAlg= 0 I1Cent=   0 FoldK=F
 IRaf= 810000000 NMat=   1 IRICut=       1 DoRegI=T DoRafI=F ISym2E= 0.
 FoFCou: FMM=T IPFlag=           0 FMFlag=      100000 FMFlg1=        2001
         NFxFlg=           0 DoJE=T BraDBF=F KetDBF=F FulRan=T
         wScrn=  0.000000 ICntrl=     500 IOpCl=  0 I1Cent=           0 NGrid=           0
         NMat0=    1 NMatS0=      1 NMatT0=    0 NMatD0=    1 NMtDS0=    0 NMtDT0=    0
 Symmetry not used in FoFCou.
 FMM levels:  10  Number of levels for PrismC:   9
 Defaulting to unpruned grid for atomic number  44.
 Defaulting to unpruned grid for atomic number  44.
 Defaulting to unpruned grid for atomic number  44.
 Defaulting to unpruned grid for atomic number  44.
 Defaulting to unpruned grid for atomic number  44.
 Defaulting to unpruned grid for atomic number  44.
 Defaulting to unpruned grid for atomic number  44.
 Defaulting to unpruned grid for atomic number  44.
 Inv3:  Mode=1 IEnd=    90915075.
 Iteration    1 A*A^-1 deviation from unit magnitude is 9.99D-15 for   2308.
 Iteration    1 A*A^-1 deviation from orthogonality  is 9.62D-15 for   4846   4526.
 Iteration    1 A^-1*A deviation from unit magnitude is 1.33D-14 for   3610.
 Iteration    1 A^-1*A deviation from orthogonality  is 3.46D-14 for   4929   4896.
 E= -2062.77299038306    
 DIIS: error= 5.26D-02 at cycle   1 NSaved=   1.
 NSaved= 1 IEnMin= 1 EnMin= -2062.77299038306     IErMin= 1 ErrMin= 5.26D-02
 ErrMax= 5.26D-02  0.00D+00 EMaxC= 1.00D-01 BMatC= 1.69D+00 BMatP= 1.69D+00
 IDIUse=3 WtCom= 4.74D-01 WtEn= 5.26D-01
 Coeff-Com:  0.100D+01
 Coeff-En:   0.100D+01
 Coeff:      0.100D+01
 Gap=     0.341 Goal=   None    Shift=    0.000
 GapD=    0.341 DampG=1.000 DampE=0.250 DampFc=0.2500 IDamp=-1.
 Damping current iteration by 2.50D-01
 RMSDP=5.62D-03 MaxDP=1.20D+00              OVMax= 5.78D-01

 Cycle   2  Pass 1  IDiag  1:
 RMSU=  1.40D-03    CP:  9.93D-01
 E= -2063.07826810178     Delta-E=       -0.305277718723 Rises=F Damp=T
 DIIS: error= 1.98D-02 at cycle   2 NSaved=   2.
 NSaved= 2 IEnMin= 2 EnMin= -2063.07826810178     IErMin= 2 ErrMin= 1.98D-02
 ErrMax= 1.98D-02  0.00D+00 EMaxC= 1.00D-01 BMatC= 2.21D-01 BMatP= 1.69D+00
 IDIUse=3 WtCom= 8.02D-01 WtEn= 1.98D-01
 Coeff-Com:  0.374D-01 0.963D+00
 Coeff-En:   0.369D+00 0.631D+00
 Coeff:      0.103D+00 0.897D+00
 Gap=     0.029 Goal=   None    Shift=    0.000
 RMSDP=1.91D-03 MaxDP=3.59D-01 DE=-3.05D-01 OVMax= 9.04D-01

 Cycle   3  Pass 1  IDiag  1:
 RMSU=  1.84D-03    CP:  9.81D-01  6.42D-01
 E= -2063.47255276823     Delta-E=       -0.394284666449 Rises=F Damp=F
 DIIS: error= 4.12D-02 at cycle   3 NSaved=   3.
 NSaved= 3 IEnMin= 3 EnMin= -2063.47255276823     IErMin= 2 ErrMin= 1.98D-02
 ErrMax= 4.12D-02  0.00D+00 EMaxC= 1.00D-01 BMatC= 7.79D-01 BMatP= 2.21D-01
 IDIUse=2 WtCom= 0.00D+00 WtEn= 1.00D+00
 EnCoef did     3 forward-backward iterations
 Coeff-En:   0.803D-01 0.296D+00 0.624D+00
 Coeff:      0.803D-01 0.296D+00 0.624D+00
 Gap=     0.200 Goal=   None    Shift=    0.000
 RMSDP=2.90D-03 MaxDP=3.36D-01 DE=-3.94D-01 OVMax= 3.95D-01

 Cycle   4  Pass 1  IDiag  1:
 RMSU=  1.91D-03    CP:  9.84D-01  1.37D+00 -5.00D-02
 E= -2059.99184376778     Delta-E=        3.480709000448 Rises=F Damp=F
 DIIS: error= 1.28D-01 at cycle   4 NSaved=   4.
 NSaved= 4 IEnMin= 3 EnMin= -2063.47255276823     IErMin= 2 ErrMin= 1.98D-02
 ErrMax= 1.28D-01  0.00D+00 EMaxC= 1.00D-01 BMatC= 5.24D+00 BMatP= 2.21D-01
 IDIUse=2 WtCom= 0.00D+00 WtEn= 1.00D+00
 EnCoef did     2 forward-backward iterations
 Coeff-En:   0.147D+00 0.000D+00 0.633D+00 0.219D+00
 Coeff:      0.147D+00 0.000D+00 0.633D+00 0.219D+00
 Gap=     0.093 Goal=   None    Shift=    0.000
 RMSDP=1.66D-03 MaxDP=3.10D-01 DE= 3.48D+00 OVMax= 3.67D-01

 Cycle   5  Pass 1  IDiag  1:
 RMSU=  6.96D-04    CP:  9.90D-01  6.87D-01  2.60D-01  4.66D-01
 E= -2064.05035446876     Delta-E=       -4.058510700978 Rises=F Damp=F
 DIIS: error= 2.11D-02 at cycle   5 NSaved=   5.
 NSaved= 5 IEnMin= 5 EnMin= -2064.05035446876     IErMin= 2 ErrMin= 1.98D-02
 ErrMax= 2.11D-02  0.00D+00 EMaxC= 1.00D-01 BMatC= 1.94D-01 BMatP= 2.21D-01
 IDIUse=3 WtCom= 7.89D-01 WtEn= 2.11D-01
 Coeff-Com: -0.199D-01 0.241D+00 0.333D+00 0.115D-01 0.435D+00
 Coeff-En:   0.000D+00 0.000D+00 0.252D+00 0.000D+00 0.748D+00
 Coeff:     -0.157D-01 0.190D+00 0.316D+00 0.909D-02 0.501D+00
 Gap=     0.130 Goal=   None    Shift=    0.000
 RMSDP=8.97D-04 MaxDP=5.71D-02 DE=-4.06D+00 OVMax= 1.15D-01

 Cycle   6  Pass 1  IDiag  1:
 RMSU=  3.82D-04    CP:  9.88D-01  6.27D-01  5.03D-01  2.85D-01  1.72D-01
 E= -2064.16890519246     Delta-E=       -0.118550723698 Rises=F Damp=F
 DIIS: error= 9.27D-03 at cycle   6 NSaved=   6.
 NSaved= 6 IEnMin= 6 EnMin= -2064.16890519246     IErMin= 6 ErrMin= 9.27D-03
 ErrMax= 9.27D-03  0.00D+00 EMaxC= 1.00D-01 BMatC= 6.79D-02 BMatP= 1.94D-01
 IDIUse=3 WtCom= 9.07D-01 WtEn= 9.27D-02
 Coeff-Com: -0.156D-01 0.610D-01 0.179D+00-0.246D-01 0.459D+00 0.342D+00
 Coeff-En:   0.000D+00 0.000D+00 0.000D+00 0.000D+00 0.287D+00 0.713D+00
 Coeff:     -0.142D-01 0.553D-01 0.162D+00-0.223D-01 0.443D+00 0.376D+00
 Gap=     0.102 Goal=   None    Shift=    0.000
 RMSDP=3.83D-04 MaxDP=5.24D-02 DE=-1.19D-01 OVMax= 6.32D-02

 Cycle   7  Pass 1  IDiag  1:
 RMSU=  1.22D-04    CP:  9.88D-01  6.34D-01  4.85D-01  2.97D-01  5.45D-01
                    CP:  3.44D-01
 E= -2064.23490627322     Delta-E=       -0.066001080762 Rises=F Damp=F
 DIIS: error= 3.22D-03 at cycle   7 NSaved=   7.
 NSaved= 7 IEnMin= 7 EnMin= -2064.23490627322     IErMin= 7 ErrMin= 3.22D-03
 ErrMax= 3.22D-03  0.00D+00 EMaxC= 1.00D-01 BMatC= 5.73D-03 BMatP= 6.79D-02
 IDIUse=3 WtCom= 9.68D-01 WtEn= 3.22D-02
 Coeff-Com: -0.159D-01 0.334D-01 0.818D-01-0.156D-01 0.254D+00 0.263D+00
 Coeff-Com:  0.399D+00
 Coeff-En:   0.000D+00 0.000D+00 0.000D+00 0.000D+00 0.000D+00 0.692D-01
 Coeff-En:   0.931D+00
 Coeff:     -0.154D-01 0.324D-01 0.792D-01-0.151D-01 0.246D+00 0.257D+00
 Coeff:      0.416D+00
 Gap=     0.102 Goal=   None    Shift=    0.000
 RMSDP=1.09D-04 MaxDP=2.26D-02 DE=-6.60D-02 OVMax= 2.09D-02

 Cycle   8  Pass 1  IDiag  1:
 RMSU=  5.48D-05    CP:  9.88D-01  6.57D-01  4.70D-01  3.18D-01  5.33D-01
                    CP:  4.69D-01  5.44D-01
 E= -2064.23837614092     Delta-E=       -0.003469867697 Rises=F Damp=F
 DIIS: error= 1.80D-03 at cycle   8 NSaved=   8.
 NSaved= 8 IEnMin= 8 EnMin= -2064.23837614092     IErMin= 8 ErrMin= 1.80D-03
 ErrMax= 1.80D-03  0.00D+00 EMaxC= 1.00D-01 BMatC= 1.59D-03 BMatP= 5.73D-03
 IDIUse=3 WtCom= 9.82D-01 WtEn= 1.80D-02
 Coeff-Com: -0.710D-03 0.297D-02 0.219D-01-0.517D-02 0.763D-01 0.886D-01
 Coeff-Com:  0.331D+00 0.485D+00
 Coeff-En:   0.000D+00 0.000D+00 0.000D+00 0.000D+00 0.000D+00 0.000D+00
 Coeff-En:   0.291D+00 0.709D+00
 Coeff:     -0.697D-03 0.291D-02 0.215D-01-0.508D-02 0.749D-01 0.870D-01
 Coeff:      0.331D+00 0.489D+00
 Gap=     0.100 Goal=   None    Shift=    0.000
 RMSDP=3.92D-05 MaxDP=9.21D-03 DE=-3.47D-03 OVMax= 8.86D-03

 Cycle   9  Pass 1  IDiag  1:
 RMSU=  2.35D-05    CP:  9.88D-01  6.48D-01  4.71D-01  3.11D-01  5.48D-01
                    CP:  4.58D-01  5.74D-01  5.88D-01
 E= -2064.23946227706     Delta-E=       -0.001086136139 Rises=F Damp=F
 DIIS: error= 3.39D-04 at cycle   9 NSaved=   9.
 NSaved= 9 IEnMin= 9 EnMin= -2064.23946227706     IErMin= 9 ErrMin= 3.39D-04
 ErrMax= 3.39D-04  0.00D+00 EMaxC= 1.00D-01 BMatC= 1.46D-04 BMatP= 1.59D-03
 IDIUse=3 WtCom= 9.97D-01 WtEn= 3.39D-03
 Coeff-Com:  0.191D-02-0.312D-02 0.373D-02-0.140D-02 0.160D-01 0.235D-01
 Coeff-Com:  0.198D+00 0.364D+00 0.397D+00
 Coeff-En:   0.000D+00 0.000D+00 0.000D+00 0.000D+00 0.000D+00 0.000D+00
 Coeff-En:   0.000D+00 0.373D-01 0.963D+00
 Coeff:      0.191D-02-0.311D-02 0.372D-02-0.140D-02 0.159D-01 0.234D-01
 Coeff:      0.198D+00 0.363D+00 0.399D+00
 Gap=     0.100 Goal=   None    Shift=    0.000
 RMSDP=1.79D-05 MaxDP=1.10D-03 DE=-1.09D-03 OVMax= 3.30D-03

 Cycle  10  Pass 1  IDiag  1:
 RMSU=  9.16D-06    CP:  9.88D-01  6.47D-01  4.73D-01  3.12D-01  5.46D-01
                    CP:  4.44D-01  6.12D-01  5.68D-01  4.39D-01
 E= -2064.23960872928     Delta-E=       -0.000146452224 Rises=F Damp=F
 DIIS: error= 1.23D-04 at cycle  10 NSaved=  10.
 NSaved=10 IEnMin=10 EnMin= -2064.23960872928     IErMin=10 ErrMin= 1.23D-04
 ErrMax= 1.23D-04  0.00D+00 EMaxC= 1.00D-01 BMatC= 1.46D-05 BMatP= 1.46D-04
 IDIUse=3 WtCom= 9.99D-01 WtEn= 1.23D-03
 Coeff-Com:  0.171D-02-0.271D-02 0.106D-02-0.336D-03 0.375D-02 0.857D-02
 Coeff-Com:  0.102D+00 0.183D+00 0.261D+00 0.442D+00
 Coeff-En:   0.000D+00 0.000D+00 0.000D+00 0.000D+00 0.000D+00 0.000D+00
 Coeff-En:   0.000D+00 0.000D+00 0.138D-01 0.986D+00
 Coeff:      0.170D-02-0.271D-02 0.106D-02-0.335D-03 0.375D-02 0.856D-02
 Coeff:      0.102D+00 0.183D+00 0.261D+00 0.443D+00
 Gap=     0.100 Goal=   None    Shift=    0.000
 RMSDP=6.92D-06 MaxDP=9.04D-04 DE=-1.46D-04 OVMax= 1.22D-03

 Cycle  11  Pass 1  IDiag  1:
 RMSU=  3.61D-06    CP:  9.88D-01  6.47D-01  4.73D-01  3.11D-01  5.43D-01
                    CP:  4.45D-01  6.18D-01  5.92D-01  4.47D-01  5.12D-01
 E= -2064.23962213438     Delta-E=       -0.000013405093 Rises=F Damp=F
 DIIS: error= 3.76D-05 at cycle  11 NSaved=  11.
 NSaved=11 IEnMin=11 EnMin= -2064.23962213438     IErMin=11 ErrMin= 3.76D-05
 ErrMax= 3.76D-05  0.00D+00 EMaxC= 1.00D-01 BMatC= 2.00D-06 BMatP= 1.46D-05
 IDIUse=1 WtCom= 1.00D+00 WtEn= 0.00D+00
 Coeff-Com:  0.962D-03-0.141D-02 0.286D-03-0.664D-04 0.137D-03 0.343D-02
 Coeff-Com:  0.464D-01 0.776D-01 0.123D+00 0.297D+00 0.452D+00
 Coeff:      0.962D-03-0.141D-02 0.286D-03-0.664D-04 0.137D-03 0.343D-02
 Coeff:      0.464D-01 0.776D-01 0.123D+00 0.297D+00 0.452D+00
 Gap=     0.100 Goal=   None    Shift=    0.000
 RMSDP=2.28D-06 MaxDP=2.03D-04 DE=-1.34D-05 OVMax= 4.03D-04

 Cycle  12  Pass 1  IDiag  1:
 RMSU=  8.94D-07    CP:  9.88D-01  6.47D-01  4.73D-01  3.11D-01  5.43D-01
                    CP:  4.45D-01  6.22D-01  5.80D-01  4.67D-01  5.65D-01
                    CP:  5.43D-01
 E= -2064.23962421873     Delta-E=       -0.000002084353 Rises=F Damp=F
 DIIS: error= 2.20D-05 at cycle  12 NSaved=  12.
 NSaved=12 IEnMin=12 EnMin= -2064.23962421873     IErMin=12 ErrMin= 2.20D-05
 ErrMax= 2.20D-05  0.00D+00 EMaxC= 1.00D-01 BMatC= 2.36D-07 BMatP= 2.00D-06
 IDIUse=1 WtCom= 1.00D+00 WtEn= 0.00D+00
 Coeff-Com:  0.305D-03-0.272D-03 0.148D-03-0.481D-04-0.356D-03 0.129D-02
 Coeff-Com:  0.140D-01 0.196D-01 0.334D-01 0.112D+00 0.279D+00 0.542D+00
 Coeff:      0.305D-03-0.272D-03 0.148D-03-0.481D-04-0.356D-03 0.129D-02
 Coeff:      0.140D-01 0.196D-01 0.334D-01 0.112D+00 0.279D+00 0.542D+00
 Gap=     0.100 Goal=   None    Shift=    0.000
 RMSDP=6.20D-07 MaxDP=5.51D-05 DE=-2.08D-06 OVMax= 7.80D-05

 Cycle  13  Pass 1  IDiag  1:
 RMSU=  3.92D-07    CP:  9.88D-01  6.46D-01  4.73D-01  3.11D-01  5.42D-01
                    CP:  4.45D-01  6.22D-01  5.80D-01  4.58D-01  5.61D-01
                    CP:  5.83D-01  6.88D-01
 E= -2064.23962439871     Delta-E=       -0.000000179978 Rises=F Damp=F
 DIIS: error= 7.79D-06 at cycle  13 NSaved=  13.
 NSaved=13 IEnMin=13 EnMin= -2064.23962439871     IErMin=13 ErrMin= 7.79D-06
 ErrMax= 7.79D-06  0.00D+00 EMaxC= 1.00D-01 BMatC= 4.41D-08 BMatP= 2.36D-07
 IDIUse=1 WtCom= 1.00D+00 WtEn= 0.00D+00
 Coeff-Com:  0.133D-03-0.528D-04 0.911D-04-0.316D-04-0.270D-03 0.517D-03
 Coeff-Com:  0.489D-02 0.551D-02 0.104D-01 0.456D-01 0.147D+00 0.384D+00
 Coeff-Com:  0.403D+00
 Coeff:      0.133D-03-0.528D-04 0.911D-04-0.316D-04-0.270D-03 0.517D-03
 Coeff:      0.489D-02 0.551D-02 0.104D-01 0.456D-01 0.147D+00 0.384D+00
 Coeff:      0.403D+00
 Gap=     0.100 Goal=   None    Shift=    0.000
 RMSDP=2.85D-07 MaxDP=1.88D-05 DE=-1.80D-07 OVMax= 5.19D-05

 Cycle  14  Pass 1  IDiag  1:
 RMSU=  1.64D-07    CP:  9.88D-01  6.46D-01  4.74D-01  3.11D-01  5.42D-01
                    CP:  4.45D-01  6.21D-01  5.80D-01  4.58D-01  5.62D-01
                    CP:  5.89D-01  6.65D-01  4.91D-01
 E= -2064.23962437970     Delta-E=        0.000000019006 Rises=F Damp=F
 DIIS: error= 3.99D-06 at cycle  14 NSaved=  14.
 NSaved=14 IEnMin=13 EnMin= -2064.23962439871     IErMin=14 ErrMin= 3.99D-06
 ErrMax= 3.99D-06  0.00D+00 EMaxC= 1.00D-01 BMatC= 7.05D-09 BMatP= 4.41D-08
 IDIUse=1 WtCom= 1.00D+00 WtEn= 0.00D+00
 Coeff-Com:  0.513D-04-0.160D-04 0.384D-04-0.105D-04-0.129D-03 0.600D-04
 Coeff-Com:  0.702D-03-0.191D-04 0.116D-02 0.979D-02 0.489D-01 0.165D+00
 Coeff-Com:  0.276D+00 0.499D+00
 Coeff:      0.513D-04-0.160D-04 0.384D-04-0.105D-04-0.129D-03 0.600D-04
 Coeff:      0.702D-03-0.191D-04 0.116D-02 0.979D-02 0.489D-01 0.165D+00
 Coeff:      0.276D+00 0.499D+00
 Gap=     0.100 Goal=   None    Shift=    0.000
 RMSDP=1.14D-07 MaxDP=1.09D-05 DE= 1.90D-08 OVMax= 1.63D-05

 Cycle  15  Pass 1  IDiag  1:
 RMSU=  6.88D-08    CP:  9.88D-01  6.46D-01  4.74D-01  3.11D-01  5.42D-01
                    CP:  4.45D-01  6.22D-01  5.80D-01  4.59D-01  5.63D-01
                    CP:  5.91D-01  6.64D-01  5.29D-01  5.14D-01
 E= -2064.23962439687     Delta-E=       -0.000000017169 Rises=F Damp=F
 DIIS: error= 1.85D-06 at cycle  15 NSaved=  15.
 NSaved=15 IEnMin=13 EnMin= -2064.23962439871     IErMin=15 ErrMin= 1.85D-06
 ErrMax= 1.85D-06  0.00D+00 EMaxC= 1.00D-01 BMatC= 1.58D-09 BMatP= 7.05D-09
 IDIUse=1 WtCom= 1.00D+00 WtEn= 0.00D+00
 Coeff-Com:  0.197D-04-0.773D-05 0.154D-04-0.293D-05-0.507D-04-0.592D-04
 Coeff-Com: -0.313D-03-0.102D-02-0.751D-03-0.473D-03 0.114D-01 0.550D-01
 Coeff-Com:  0.129D+00 0.363D+00 0.443D+00
 Coeff:      0.197D-04-0.773D-05 0.154D-04-0.293D-05-0.507D-04-0.592D-04
 Coeff:     -0.313D-03-0.102D-02-0.751D-03-0.473D-03 0.114D-01 0.550D-01
 Coeff:      0.129D+00 0.363D+00 0.443D+00
 Gap=     0.100 Goal=   None    Shift=    0.000
 RMSDP=5.27D-08 MaxDP=4.96D-06 DE=-1.72D-08 OVMax= 8.59D-06

 Cycle  16  Pass 1  IDiag  1:
 RMSU=  2.05D-08    CP:  9.88D-01  6.46D-01  4.74D-01  3.11D-01  5.42D-01
                    CP:  4.45D-01  6.21D-01  5.80D-01  4.59D-01  5.63D-01
                    CP:  5.93D-01  6.77D-01  5.44D-01  5.76D-01  4.62D-01
 E= -2064.23962438609     Delta-E=        0.000000010785 Rises=F Damp=F
 DIIS: error= 4.87D-07 at cycle  16 NSaved=  16.
 NSaved=16 IEnMin=13 EnMin= -2064.23962439871     IErMin=16 ErrMin= 4.87D-07
 ErrMax= 4.87D-07  0.00D+00 EMaxC= 1.00D-01 BMatC= 1.32D-10 BMatP= 1.58D-09
 IDIUse=1 WtCom= 1.00D+00 WtEn= 0.00D+00
 Coeff-Com:  0.640D-05-0.266D-05 0.545D-05-0.791D-06-0.157D-04-0.465D-04
 Coeff-Com: -0.302D-03-0.723D-03-0.679D-03-0.175D-02 0.130D-02 0.145D-01
 Coeff-Com:  0.444D-01 0.158D+00 0.253D+00 0.532D+00
 Coeff:      0.640D-05-0.266D-05 0.545D-05-0.791D-06-0.157D-04-0.465D-04
 Coeff:     -0.302D-03-0.723D-03-0.679D-03-0.175D-02 0.130D-02 0.145D-01
 Coeff:      0.444D-01 0.158D+00 0.253D+00 0.532D+00
 Gap=     0.100 Goal=   None    Shift=    0.000
 RMSDP=1.47D-08 MaxDP=1.28D-06 DE= 1.08D-08 OVMax= 2.29D-06

 Cycle  17  Pass 1  IDiag  1:
 RMSU=  8.14D-09    CP:  9.88D-01  6.46D-01  4.74D-01  3.11D-01  5.42D-01
                    CP:  4.45D-01  6.21D-01  5.80D-01  4.59D-01  5.63D-01
                    CP:  5.93D-01  6.80D-01  5.44D-01  5.90D-01  4.75D-01
                    CP:  5.66D-01
 E= -2064.23962438624     Delta-E=       -0.000000000153 Rises=F Damp=F
 DIIS: error= 1.27D-07 at cycle  17 NSaved=  17.
 NSaved=17 IEnMin=13 EnMin= -2064.23962439871     IErMin=17 ErrMin= 1.27D-07
 ErrMax= 1.27D-07  0.00D+00 EMaxC= 1.00D-01 BMatC= 1.60D-11 BMatP= 1.32D-10
 IDIUse=1 WtCom= 1.00D+00 WtEn= 0.00D+00
 Coeff-Com:  0.182D-05-0.848D-06 0.169D-05-0.133D-06-0.366D-05-0.231D-04
 Coeff-Com: -0.161D-03-0.366D-03-0.370D-03-0.118D-02-0.659D-03 0.231D-02
 Coeff-Com:  0.122D-01 0.560D-01 0.107D+00 0.357D+00 0.468D+00
 Coeff:      0.182D-05-0.848D-06 0.169D-05-0.133D-06-0.366D-05-0.231D-04
 Coeff:     -0.161D-03-0.366D-03-0.370D-03-0.118D-02-0.659D-03 0.231D-02
 Coeff:      0.122D-01 0.560D-01 0.107D+00 0.357D+00 0.468D+00
 Gap=     0.100 Goal=   None    Shift=    0.000
 RMSDP=5.73D-09 MaxDP=6.29D-07 DE=-1.53D-10 OVMax= 7.75D-07

 Error on total polarization charges =  0.00903
 SCF Done:  E(RB-P86) =  -2064.23962439     A.U. after   17 cycles
            NFock= 17  Conv=0.57D-08     -V/T= 2.0830
 KE= 1.906020610824D+03 PE=-1.674146380153D+04 EE= 6.800260116477D+03
 Leave Link  502 at Sat Apr 11 14:05:14 2020, MaxMem=  1879048192 cpu:      5616.9
 (Enter /home/programs/G09_D/g09/l601.exe)
 Copying SCF densities to generalized density rwf, IOpCl= 0 IROHF=0.

 **********************************************************************

            Population analysis using the SCF density.

 **********************************************************************

 Orbital symmetries:
       Occupied  (A) (A) (A) (A) (A) (A) (A) (A) (A) (A) (A) (A)
                 (A) (A) (A) (A) (A) (A) (A) (A) (A) (A) (A) (A)
                 (A) (A) (A) (A) (A) (A) (A) (A) (A) (A) (A) (A)
                 (A) (A) (A) (A) (A) (A) (A) (A) (A) (A) (A) (A)
                 (A) (A) (A) (A) (A) (A) (A) (A) (A) (A) (A) (A)
                 (A) (A) (A) (A) (A) (A) (A) (A) (A) (A) (A) (A)
                 (A) (A) (A) (A) (A) (A) (A) (A) (A) (A) (A) (A)
                 (A) (A) (A) (A) (A) (A) (A) (A) (A) (A) (A) (A)
                 (A) (A) (A) (A) (A) (A) (A) (A) (A) (A) (A) (A)
                 (A) (A) (A) (A) (A) (A) (A) (A) (A) (A) (A) (A)
                 (A) (A) (A) (A) (A) (A) (A) (A) (A) (A) (A) (A)
                 (A) (A) (A) (A) (A) (A) (A) (A) (A) (A) (A) (A)
                 (A) (A) (A) (A) (A) (A) (A) (A) (A) (A) (A) (A)
                 (A) (A) (A) (A) (A) (A) (A) (A) (A) (A)
       Virtual   (A) (A) (A) (A) (A) (A) (A) (A) (A) (A) (A) (A)
                 (A) (A) (A) (A) (A) (A) (A) (A) (A) (A) (A) (A)
                 (A) (A) (A) (A) (A) (A) (A) (A) (A) (A) (A) (A)
                 (A) (A) (A) (A) (A) (A) (A) (A) (A) (A) (A) (A)
                 (A) (A) (A) (A) (A) (A) (A) (A) (A) (A) (A) (A)
                 (A) (A) (A) (A) (A) (A) (A) (A) (A) (A) (A) (A)
                 (A) (A) (A) (A) (A) (A) (A) (A) (A) (A) (A) (A)
                 (A) (A) (A) (A) (A) (A) (A) (A) (A) (A) (A) (A)
                 (A) (A) (A) (A) (A) (A) (A) (A) (A) (A) (A) (A)
                 (A) (A) (A) (A) (A) (A) (A) (A) (A) (A) (A) (A)
                 (A) (A) (A) (A) (A) (A) (A) (A) (A) (A) (A) (A)
                 (A) (A) (A) (A) (A) (A) (A) (A) (A) (A) (A) (A)
                 (A) (A) (A) (A) (A) (A) (A) (A) (A) (A) (A) (A)
                 (A) (A) (A) (A) (A) (A) (A) (A) (A) (A) (A) (A)
                 (A) (A) (A) (A) (A) (A) (A) (A) (A) (A) (A) (A)
                 (A) (A) (A) (A) (A) (A) (A) (A) (A) (A) (A) (A)
                 (A) (A) (A) (A) (A) (A) (A) (A) (A) (A) (A) (A)
                 (A) (A) (A) (A) (A) (A) (A) (A) (A) (A) (A) (A)
                 (A) (A) (A) (A) (A) (A) (A) (A) (A) (A) (A) (A)
                 (A) (A) (A) (A) (A) (A) (A) (A) (A) (A) (A) (A)
                 (A) (A) (A) (A) (A) (A) (A) (A) (A) (A) (A) (A)
                 (A) (A) (A) (A) (A) (A) (A) (A) (A) (A) (A) (A)
                 (A) (A) (A) (A) (A) (A) (A) (A) (A) (A) (A) (A)
                 (A) (A) (A) (A) (A) (A) (A) (A) (A) (A) (A) (A)
                 (A) (A) (A) (A) (A) (A) (A) (A) (A) (A) (A) (A)
                 (A) (A) (A) (A) (A) (A) (A) (A) (A) (A) (A) (A)
                 (A) (A) (A) (A) (A) (A) (A) (A) (A) (A) (A) (A)
                 (A) (A) (A) (A) (A) (A) (A) (A) (A) (A) (A) (A)
                 (A) (A) (A) (A) (A) (A) (A) (A) (A) (A) (A) (A)
                 (A) (A) (A) (A) (A) (A) (A) (A) (A) (A) (A) (A)
                 (A) (A) (A) (A) (A) (A) (A) (A) (A) (A) (A) (A)
                 (A) (A) (A) (A) (A) (A) (A) (A) (A) (A) (A) (A)
                 (A) (A) (A) (A) (A) (A) (A) (A) (A) (A) (A) (A)
                 (A) (A) (A) (A) (A) (A) (A) (A) (A) (A) (A) (A)
                 (A) (A) (A) (A) (A) (A) (A) (A) (A) (A) (A) (A)
                 (A) (A) (A) (A) (A) (A) (A) (A) (A) (A) (A) (A)
                 (A) (A) (A) (A) (A) (A) (A) (A) (A) (A) (A) (A)
                 (A) (A) (A) (A) (A) (A) (A) (A) (A) (A) (A) (A)
                 (A) (A) (A) (A) (A) (A) (A) (A) (A) (A) (A) (A)
                 (A) (A) (A) (A) (A) (A) (A) (A) (A) (A) (A) (A)
                 (A) (A) (A) (A) (A) (A) (A) (A) (A) (A) (A) (A)
                 (A) (A) (A) (A) (A) (A) (A) (A) (A) (A) (A) (A)
                 (A) (A) (A) (A) (A) (A) (A) (A) (A) (A) (A) (A)
                 (A) (A) (A) (A) (A) (A) (A) (A) (A) (A) (A) (A)
                 (A) (A) (A) (A) (A) (A) (A) (A) (A) (A) (A) (A)
                 (A) (A) (A) (A) (A) (A) (A) (A) (A) (A) (A) (A)
                 (A) (A) (A) (A) (A) (A) (A) (A) (A) (A) (A) (A)
                 (A) (A) (A) (A) (A) (A) (A) (A) (A) (A) (A) (A)
                 (A) (A) (A) (A) (A) (A) (A) (A) (A) (A) (A) (A)
                 (A) (A) (A) (A) (A) (A) (A) (A) (A) (A) (A) (A)
                 (A) (A) (A) (A) (A) (A) (A) (A) (A) (A) (A) (A)
                 (A) (A) (A) (A) (A) (A) (A) (A) (A) (A) (A) (A)
                 (A) (A) (A) (A) (A) (A) (A) (A) (A) (A) (A) (A)
                 (A) (A) (A) (A) (A) (A) (A) (A) (A) (A) (A) (A)
                 (A) (A) (A) (A) (A) (A) (A) (A) (A) (A) (A) (A)
 The electronic state is 1-A.
 Alpha  occ. eigenvalues --  -18.84999 -18.84996 -18.84982 -10.01092 -10.01091
 Alpha  occ. eigenvalues --  -10.00933  -9.93538  -9.93537  -9.93372  -9.93372
 Alpha  occ. eigenvalues --   -9.92730  -9.92730  -9.92538  -9.92537  -9.92525
 Alpha  occ. eigenvalues --   -9.92525  -9.92512  -9.92512  -9.92498  -9.92498
 Alpha  occ. eigenvalues --   -9.92455  -9.92454  -9.92450  -9.92450  -9.92350
 Alpha  occ. eigenvalues --   -9.92349  -9.92347  -9.92346  -9.92296  -9.92296
 Alpha  occ. eigenvalues --   -9.92260  -9.92260  -9.91817  -9.91817  -9.91543
 Alpha  occ. eigenvalues --   -9.91543  -9.91426  -9.91426  -9.91029  -9.91028
 Alpha  occ. eigenvalues --   -9.89889  -9.89885  -4.80598  -3.04246  -3.03855
 Alpha  occ. eigenvalues --   -3.03427  -2.89348  -1.78091  -1.77058  -1.76441
 Alpha  occ. eigenvalues --   -1.01073  -1.01054  -1.01025  -0.78710  -0.78698
 Alpha  occ. eigenvalues --   -0.78000  -0.77999  -0.76773  -0.76742  -0.70765
 Alpha  occ. eigenvalues --   -0.70695  -0.68186  -0.68184  -0.68058  -0.68057
 Alpha  occ. eigenvalues --   -0.67756  -0.67753  -0.66890  -0.66879  -0.66327
 Alpha  occ. eigenvalues --   -0.66160  -0.60049  -0.59781  -0.55304  -0.55272
 Alpha  occ. eigenvalues --   -0.55076  -0.55059  -0.54399  -0.54337  -0.53691
 Alpha  occ. eigenvalues --   -0.53618  -0.53025  -0.52778  -0.51588  -0.50475
 Alpha  occ. eigenvalues --   -0.50247  -0.49025  -0.48851  -0.46994  -0.46867
 Alpha  occ. eigenvalues --   -0.46225  -0.46054  -0.44572  -0.44069  -0.41809
 Alpha  occ. eigenvalues --   -0.41295  -0.41248  -0.41172  -0.40930  -0.40670
 Alpha  occ. eigenvalues --   -0.40635  -0.40219  -0.40217  -0.40047  -0.39986
 Alpha  occ. eigenvalues --   -0.39723  -0.39687  -0.39448  -0.39092  -0.38747
 Alpha  occ. eigenvalues --   -0.38588  -0.38561  -0.38338  -0.38289  -0.38051
 Alpha  occ. eigenvalues --   -0.37936  -0.37723  -0.37720  -0.37570  -0.37523
 Alpha  occ. eigenvalues --   -0.37447  -0.37389  -0.37138  -0.36792  -0.36612
 Alpha  occ. eigenvalues --   -0.36182  -0.36141  -0.35636  -0.34985  -0.34183
 Alpha  occ. eigenvalues --   -0.33496  -0.33332  -0.33171  -0.33103  -0.32503
 Alpha  occ. eigenvalues --   -0.32346  -0.31978  -0.31898  -0.31098  -0.30776
 Alpha  occ. eigenvalues --   -0.30611  -0.30585  -0.30342  -0.29634  -0.29364
 Alpha  occ. eigenvalues --   -0.28505  -0.28428  -0.26713  -0.26342  -0.24570
 Alpha  occ. eigenvalues --   -0.24170  -0.23583  -0.23583  -0.23452  -0.23374
 Alpha  occ. eigenvalues --   -0.23360  -0.23082  -0.22823  -0.22387  -0.22340
 Alpha  occ. eigenvalues --   -0.22229  -0.21767  -0.21743  -0.21105  -0.20317
 Alpha  occ. eigenvalues --   -0.16884
 Alpha virt. eigenvalues --   -0.06881  -0.06669  -0.06370  -0.05992  -0.05720
 Alpha virt. eigenvalues --   -0.05410  -0.05376  -0.04996  -0.04815  -0.04395
 Alpha virt. eigenvalues --   -0.04193  -0.03937  -0.03277  -0.03094  -0.02756
 Alpha virt. eigenvalues --   -0.02258  -0.01496  -0.01193  -0.00874  -0.00463
 Alpha virt. eigenvalues --    0.01269   0.02692   0.03112   0.03442   0.03467
 Alpha virt. eigenvalues --    0.04142   0.04642   0.04836   0.05708   0.05733
 Alpha virt. eigenvalues --    0.06651   0.06876   0.07259   0.07934   0.07964
 Alpha virt. eigenvalues --    0.08407   0.09095   0.09352   0.09501   0.09758
 Alpha virt. eigenvalues --    0.10247   0.10589   0.10746   0.10999   0.11271
 Alpha virt. eigenvalues --    0.11612   0.11963   0.12017   0.12201   0.12599
 Alpha virt. eigenvalues --    0.12744   0.12798   0.13370   0.13380   0.14115
 Alpha virt. eigenvalues --    0.14125   0.14614   0.15074   0.15305   0.15404
 Alpha virt. eigenvalues --    0.15549   0.15757   0.16102   0.16493   0.16793
 Alpha virt. eigenvalues --    0.17214   0.17441   0.17741   0.18296   0.19034
 Alpha virt. eigenvalues --    0.19134   0.19755   0.20749   0.21049   0.21531
 Alpha virt. eigenvalues --    0.21652   0.22340   0.22494   0.23459   0.23625
 Alpha virt. eigenvalues --    0.23734   0.23754   0.24525   0.25076   0.25422
 Alpha virt. eigenvalues --    0.25600   0.25760   0.26066   0.26167   0.26531
 Alpha virt. eigenvalues --    0.26655   0.26857   0.27208   0.27219   0.27957
 Alpha virt. eigenvalues --    0.28083   0.28171   0.28676   0.29176   0.29280
 Alpha virt. eigenvalues --    0.29596   0.30749   0.31153   0.31357   0.32537
 Alpha virt. eigenvalues --    0.33113   0.33288   0.34110   0.35018   0.36466
 Alpha virt. eigenvalues --    0.36510   0.37540   0.38438   0.38610   0.39465
 Alpha virt. eigenvalues --    0.40690   0.41198   0.42249   0.42452   0.44367
 Alpha virt. eigenvalues --    0.45615   0.45886   0.46821   0.47472   0.47836
 Alpha virt. eigenvalues --    0.48147   0.48158   0.48452   0.48735   0.49019
 Alpha virt. eigenvalues --    0.49129   0.49209   0.49592   0.49701   0.49844
 Alpha virt. eigenvalues --    0.50105   0.50183   0.50420   0.50555   0.51550
 Alpha virt. eigenvalues --    0.51668   0.51679   0.51806   0.51881   0.52083
 Alpha virt. eigenvalues --    0.52248   0.52562   0.53219   0.53891   0.53944
 Alpha virt. eigenvalues --    0.53959   0.54239   0.54422   0.54879   0.54995
 Alpha virt. eigenvalues --    0.55402   0.55469   0.55551   0.55657   0.55850
 Alpha virt. eigenvalues --    0.56428   0.56499   0.56520   0.56789   0.56902
 Alpha virt. eigenvalues --    0.57440   0.57559   0.57762   0.57959   0.58495
 Alpha virt. eigenvalues --    0.58545   0.59030   0.59375   0.59456   0.59572
 Alpha virt. eigenvalues --    0.59948   0.60701   0.60928   0.61310   0.61632
 Alpha virt. eigenvalues --    0.61736   0.62661   0.62701   0.62785   0.63770
 Alpha virt. eigenvalues --    0.64018   0.64202   0.65267   0.65434   0.66836
 Alpha virt. eigenvalues --    0.67057   0.67698   0.67902   0.68602   0.69305
 Alpha virt. eigenvalues --    0.69679   0.70393   0.70396   0.71445   0.71722
 Alpha virt. eigenvalues --    0.72188   0.72239   0.72880   0.73361   0.74123
 Alpha virt. eigenvalues --    0.74579   0.75358   0.75787   0.76064   0.76390
 Alpha virt. eigenvalues --    0.76437   0.76613   0.76744   0.76885   0.77006
 Alpha virt. eigenvalues --    0.77197   0.77225   0.77498   0.77577   0.77593
 Alpha virt. eigenvalues --    0.78362   0.79109   0.79350   0.79615   0.79905
 Alpha virt. eigenvalues --    0.79920   0.80267   0.80607   0.80624   0.80924
 Alpha virt. eigenvalues --    0.81105   0.82609   0.82735   0.83128   0.83190
 Alpha virt. eigenvalues --    0.83868   0.84129   0.84512   0.84750   0.85095
 Alpha virt. eigenvalues --    0.85244   0.85423   0.85643   0.86174   0.86440
 Alpha virt. eigenvalues --    0.86777   0.87199   0.87536   0.87711   0.88294
 Alpha virt. eigenvalues --    0.88504   0.89164   0.89295   0.89708   0.89966
 Alpha virt. eigenvalues --    0.90716   0.90877   0.90924   0.91720   0.92916
 Alpha virt. eigenvalues --    0.93036   0.94068   0.94402   0.94430   0.94818
 Alpha virt. eigenvalues --    0.94852   0.95694   0.96516   0.96682   0.97860
 Alpha virt. eigenvalues --    0.98134   0.98479   0.99742   0.99807   1.00910
 Alpha virt. eigenvalues --    1.01063   1.01404   1.01752   1.01983   1.02821
 Alpha virt. eigenvalues --    1.03151   1.04204   1.04663   1.05247   1.05497
 Alpha virt. eigenvalues --    1.05788   1.06421   1.06447   1.07201   1.07778
 Alpha virt. eigenvalues --    1.08235   1.08552   1.08986   1.09564   1.10125
 Alpha virt. eigenvalues --    1.10163   1.10236   1.10737   1.11996   1.12073
 Alpha virt. eigenvalues --    1.12912   1.13656   1.13851   1.15096   1.15332
 Alpha virt. eigenvalues --    1.15572   1.16158   1.18710   1.19008   1.19028
 Alpha virt. eigenvalues --    1.19390   1.19723   1.20316   1.20729   1.20999
 Alpha virt. eigenvalues --    1.21576   1.22334   1.24135   1.24171   1.24620
 Alpha virt. eigenvalues --    1.25118   1.25153   1.27208   1.27738   1.28194
 Alpha virt. eigenvalues --    1.28404   1.29784   1.29818   1.30182   1.31036
 Alpha virt. eigenvalues --    1.31071   1.31369   1.32191   1.32541   1.32612
 Alpha virt. eigenvalues --    1.33423   1.33426   1.33831   1.33923   1.34024
 Alpha virt. eigenvalues --    1.34091   1.34691   1.34927   1.35080   1.35599
 Alpha virt. eigenvalues --    1.35821   1.36041   1.36642   1.36772   1.37488
 Alpha virt. eigenvalues --    1.37782   1.37893   1.38621   1.38900   1.39123
 Alpha virt. eigenvalues --    1.40147   1.40311   1.41455   1.41794   1.42763
 Alpha virt. eigenvalues --    1.43304   1.43462   1.44505   1.44648   1.46282
 Alpha virt. eigenvalues --    1.46643   1.47872   1.49170   1.49436   1.50362
 Alpha virt. eigenvalues --    1.51328   1.51961   1.53070   1.54713   1.55177
 Alpha virt. eigenvalues --    1.55226   1.56559   1.57201   1.57931   1.59291
 Alpha virt. eigenvalues --    1.60230   1.61322   1.61630   1.61798   1.62832
 Alpha virt. eigenvalues --    1.64289   1.64625   1.65675   1.67710   1.69094
 Alpha virt. eigenvalues --    1.69661   1.69852   1.70517   1.70792   1.70923
 Alpha virt. eigenvalues --    1.71212   1.71526   1.72015   1.72387   1.72823
 Alpha virt. eigenvalues --    1.72956   1.73786   1.73828   1.74094   1.74380
 Alpha virt. eigenvalues --    1.74700   1.77735   1.77845   1.78994   1.79379
 Alpha virt. eigenvalues --    1.80612   1.80878   1.81664   1.82615   1.82767
 Alpha virt. eigenvalues --    1.83605   1.83884   1.84218   1.84381   1.84498
 Alpha virt. eigenvalues --    1.85513   1.85899   1.85990   1.86303   1.86425
 Alpha virt. eigenvalues --    1.86952   1.87687   1.88777   1.88935   1.89533
 Alpha virt. eigenvalues --    1.89630   1.90055   1.90207   1.90235   1.90258
 Alpha virt. eigenvalues --    1.90745   1.90884   1.91332   1.91377   1.91685
 Alpha virt. eigenvalues --    1.92082   1.92466   1.92484   1.92901   1.93280
 Alpha virt. eigenvalues --    1.93293   1.93398   1.94088   1.94577   1.94718
 Alpha virt. eigenvalues --    1.95642   1.95661   1.96193   1.96828   1.96909
 Alpha virt. eigenvalues --    1.97484   1.97835   1.97979   1.99511   1.99597
 Alpha virt. eigenvalues --    1.99932   2.00858   2.02157   2.02294   2.02398
 Alpha virt. eigenvalues --    2.03605   2.03955   2.04328   2.04511   2.04857
 Alpha virt. eigenvalues --    2.05218   2.06077   2.06586   2.09598   2.11400
 Alpha virt. eigenvalues --    2.11428   2.14215   2.18826   2.18928   2.18973
 Alpha virt. eigenvalues --    2.19003   2.20865   2.20887   2.21174   2.21239
 Alpha virt. eigenvalues --    2.21600   2.21602   2.22133   2.22285   2.25271
 Alpha virt. eigenvalues --    2.25448   2.26789   2.26821   2.27692   2.27746
 Alpha virt. eigenvalues --    2.27935   2.27939   2.29263   2.29415   2.29427
 Alpha virt. eigenvalues --    2.29708   2.29749   2.30215   2.30366   2.30748
 Alpha virt. eigenvalues --    2.30991   2.31051   2.32850   2.33022   2.33243
 Alpha virt. eigenvalues --    2.33331   2.35395   2.35510   2.35765   2.35815
 Alpha virt. eigenvalues --    2.38159   2.38251   2.38643   2.38777   2.39108
 Alpha virt. eigenvalues --    2.39258   2.39414   2.39906   2.40098   2.41450
 Alpha virt. eigenvalues --    2.42061   2.43188   2.43196   2.43495   2.43730
 Alpha virt. eigenvalues --    2.43826   2.44048   2.44391   2.44540   2.44881
 Alpha virt. eigenvalues --    2.45470   2.46152   2.46282   2.46794   2.48226
 Alpha virt. eigenvalues --    2.48300   2.48687   2.48723   2.49637   2.50009
 Alpha virt. eigenvalues --    2.50359   2.50797   2.51459   2.52060   2.52111
 Alpha virt. eigenvalues --    2.52492   2.53079   2.53402   2.53832   2.54001
 Alpha virt. eigenvalues --    2.54002   2.54120   2.54544   2.54571   2.55072
 Alpha virt. eigenvalues --    2.55073   2.55516   2.55732   2.56415   2.56907
 Alpha virt. eigenvalues --    2.57866   2.58654   2.59017   2.60291   2.60637
 Alpha virt. eigenvalues --    2.61526   2.61706   2.62675   2.63273   2.63357
 Alpha virt. eigenvalues --    2.63436   2.63993   2.64058   2.64656   2.66366
 Alpha virt. eigenvalues --    2.66923   2.67192   2.68366   2.68389   2.70422
 Alpha virt. eigenvalues --    2.71037   2.72070   2.72179   2.72434   2.72939
 Alpha virt. eigenvalues --    2.73371   2.82886   2.85552   2.85581   2.85807
 Alpha virt. eigenvalues --    2.85986   2.88395   2.89685   2.91990   2.92054
 Alpha virt. eigenvalues --    2.94667   2.95233   2.95875   2.96273   2.98744
 Alpha virt. eigenvalues --    3.02830   3.05076   3.07814   3.08828   3.08923
 Alpha virt. eigenvalues --    3.09114   3.09737   3.10817   3.13501   3.13546
 Alpha virt. eigenvalues --    3.13816   3.13834   3.14266   3.14436   3.15619
 Alpha virt. eigenvalues --    3.15969   3.16210   3.16453   3.16678   3.17083
 Alpha virt. eigenvalues --    3.18401   3.19517   3.21314   3.21369   3.21619
 Alpha virt. eigenvalues --    3.21642   3.23325   3.23702   3.30932   3.31091
 Alpha virt. eigenvalues --    3.31871   3.32047   3.37160   3.37322   3.41313
 Alpha virt. eigenvalues --    3.41343   3.41668   3.42019   3.71428   3.71489
 Alpha virt. eigenvalues --    3.76637   3.76675   3.77315   3.77353   4.01641
 Alpha virt. eigenvalues --    5.92104   5.94905  34.71137  35.07123  35.15013
 Alpha virt. eigenvalues --   46.05549  68.61152  68.79485  68.81538  88.47817
          Condensed to atoms (all electrons):
 Mulliken charges:
               1
     1  Ru  -0.695830
     2  Zn   0.045361
     3  P    0.168115
     4  P    0.168105
     5  O   -0.297136
     6  O   -0.279783
     7  O   -0.279749
     8  C    0.372643
     9  C    0.273090
    10  C    0.273136
    11  C    0.070691
    12  C   -0.053786
    13  C   -0.099101
    14  H    0.103605
    15  C   -0.119285
    16  H    0.107794
    17  C   -0.095256
    18  H    0.105741
    19  C   -0.160655
    20  H    0.105626
    21  C    0.070715
    22  C   -0.160648
    23  H    0.105623
    24  C   -0.095254
    25  H    0.105741
    26  C   -0.119295
    27  H    0.107795
    28  C   -0.099084
    29  H    0.103616
    30  C   -0.053789
    31  C    0.004635
    32  C   -0.116074
    33  H    0.125637
    34  C   -0.106569
    35  H    0.115486
    36  C   -0.100085
    37  H    0.113996
    38  C   -0.108836
    39  H    0.116826
    40  C   -0.107842
    41  H    0.139099
    42  C    0.018594
    43  C   -0.121795
    44  H    0.123617
    45  C   -0.110280
    46  H    0.115209
    47  C   -0.099290
    48  H    0.115097
    49  C   -0.108445
    50  H    0.118982
    51  C   -0.102070
    52  H    0.134750
    53  C    0.004597
    54  C   -0.116066
    55  H    0.125641
    56  C   -0.106567
    57  H    0.115488
    58  C   -0.100077
    59  H    0.113998
    60  C   -0.108842
    61  H    0.116823
    62  C   -0.107841
    63  H    0.139103
    64  C    0.018599
    65  C   -0.121810
    66  H    0.123611
    67  C   -0.110263
    68  H    0.115205
    69  C   -0.099299
    70  H    0.115094
    71  C   -0.108447
    72  H    0.118985
    73  C   -0.102065
    74  H    0.134742
 Sum of Mulliken charges =   0.00000
 Mulliken charges with hydrogens summed into heavy atoms:
               1
     1  Ru  -0.695830
     2  Zn   0.045361
     3  P    0.168115
     4  P    0.168105
     5  O   -0.297136
     6  O   -0.279783
     7  O   -0.279749
     8  C    0.372643
     9  C    0.273090
    10  C    0.273136
    11  C    0.070691
    12  C   -0.053786
    13  C    0.004504
    15  C   -0.011491
    17  C    0.010486
    19  C   -0.055029
    21  C    0.070715
    22  C   -0.055026
    24  C    0.010487
    26  C   -0.011500
    28  C    0.004533
    30  C   -0.053789
    31  C    0.004635
    32  C    0.009563
    34  C    0.008917
    36  C    0.013910
    38  C    0.007989
    40  C    0.031257
    42  C    0.018594
    43  C    0.001822
    45  C    0.004930
    47  C    0.015807
    49  C    0.010538
    51  C    0.032680
    53  C    0.004597
    54  C    0.009575
    56  C    0.008921
    58  C    0.013921
    60  C    0.007981
    62  C    0.031262
    64  C    0.018599
    65  C    0.001802
    67  C    0.004942
    69  C    0.015795
    71  C    0.010538
    73  C    0.032677
 Electronic spatial extent (au):  <R**2>=          24868.4329
 Charge=              0.0000 electrons
 Dipole moment (field-independent basis, Debye):
    X=              0.0002    Y=             -1.0927    Z=             -0.0010  Tot=              1.0927
 Quadrupole moment (field-independent basis, Debye-Ang):
   XX=           -245.3305   YY=           -283.7394   ZZ=           -283.7741
   XY=              0.0056   XZ=              5.2554   YZ=              0.0055
 Traceless Quadrupole moment (field-independent basis, Debye-Ang):
   XX=             25.6175   YY=            -12.7914   ZZ=            -12.8261
   XY=              0.0056   XZ=              5.2554   YZ=              0.0055
 Octapole moment (field-independent basis, Debye-Ang**2):
  XXX=              0.0464  YYY=            106.6837  ZZZ=              0.1326  XYY=              0.0172
  XXY=            -32.4177  XXZ=              0.0190  XZZ=             -0.0321  YZZ=            -70.8054
  YYZ=             -0.1481  XYZ=             21.7135
 Hexadecapole moment (field-independent basis, Debye-Ang**3):
 XXXX=         -17849.0399 YYYY=          -7749.0564 ZZZZ=          -7015.2009 XXXY=              0.0751
 XXXZ=            -87.2767 YYYX=             -0.3371 YYYZ=              0.4696 ZZZX=            402.7184
 ZZZY=             -0.3338 XXYY=          -4087.3016 XXZZ=          -3894.8330 YYZZ=          -2300.4301
 XXYZ=              0.0253 YYXZ=           -208.0711 ZZXY=              0.4539
 N-N= 5.970943449842D+03 E-N=-1.674146378625D+04  KE= 1.906020610824D+03
 No NMR shielding tensors so no spin-rotation constants.
 Leave Link  601 at Sat Apr 11 14:05:15 2020, MaxMem=  1879048192 cpu:         6.6
 (Enter /home/programs/G09_D/g09/l9999.exe)
 1\1\GINC-COMP01\SP\RBP86\Gen\C39H28O3P2Ru1Zn1\STUART\11-Apr-2020\0\\#p
  bp86 gen pseudo=read int=grid=ultrafine scrf=(pcm,solvent=benzene)\\R
 u (PPh3)3 H4 from high temp MD\\0,1\Ru,0,0.00004,-0.56342,-0.00041\Zn,
 0,-0.00007,2.16189,0.00038\P,0,-2.375,-0.18561,0.05226\P,0,2.37508,-0.
 18554,-0.05229\O,0,0.00025,-3.66451,-0.00258\O,0,-0.05992,0.35507,-2.9
 6062\O,0,0.05983,0.352,2.96075\C,0,0.00014,-2.49033,-0.00166\C,0,-0.04
 393,-0.00555,-1.84122\C,0,0.04391,-0.00763,1.84105\C,0,-1.87039,2.5808
 3,0.50736\C,0,-2.83564,1.54236,0.61505\C,0,-4.14266,1.78722,1.09101\H,
 0,-4.86452,0.96887,1.18335\C,0,-4.51955,3.08563,1.46528\H,0,-5.53008,3
 .27178,1.84436\C,0,-3.59476,4.13599,1.35568\H,0,-3.88239,5.15224,1.648
 64\C,0,-2.2972,3.87908,0.88211\H,0,-1.59149,4.7162,0.81679\C,0,1.87049
 ,2.58131,-0.50534\C,0,2.29743,3.87986,-0.87891\H,0,1.59158,4.71686,-0.
 81353\C,0,3.5953,4.13725,-1.35133\H,0,3.88304,5.15373,-1.64339\C,0,4.5
 2033,3.08709,-1.46091\H,0,5.53113,3.27364,-1.83905\C,0,4.14329,1.78837
 ,-1.08787\H,0,4.86531,0.97015,-1.18022\C,0,2.83591,1.54302,-0.61312\C,
 0,-3.19119,-0.36494,-1.61472\C,0,-3.87688,0.69882,-2.2322\H,0,-3.96178
 ,1.66289,-1.72252\C,0,-4.44974,0.52349,-3.50412\H,0,-4.976,1.35837,-3.
 97841\C,0,-4.34734,-0.71071,-4.16258\H,0,-4.794,-0.84377,-5.15331\C,0,
 -3.66518,-1.77584,-3.54868\H,0,-3.57871,-2.74119,-4.05809\C,0,-3.08439
 ,-1.60413,-2.28466\H,0,-2.54292,-2.43262,-1.81594\C,0,-3.39461,-1.3424
 8,1.10728\C,0,-4.73271,-1.64732,0.77373\H,0,-5.17715,-1.2341,-0.13704\
 C,0,-5.49396,-2.49267,1.59675\H,0,-6.52923,-2.72348,1.32461\C,0,-4.929
 04,-3.04435,2.75757\H,0,-5.52243,-3.70713,3.3958\C,0,-3.59678,-2.75199
 ,3.09044\H,0,-3.14467,-3.18701,3.98762\C,0,-2.83143,-1.91012,2.26864\H
 ,0,-1.78853,-1.70544,2.52449\C,0,3.19084,-0.36679,1.61468\C,0,3.87589,
 0.69644,2.23377\H,0,3.96072,1.66115,1.7253\C,0,4.44827,0.51973,3.50572
 \H,0,4.97406,1.35421,3.98126\C,0,4.34599,-0.71532,4.16261\H,0,4.79224,
 -0.84944,5.15339\C,0,3.66448,-1.77991,3.54709\H,0,3.57814,-2.74592,4.0
 5527\C,0,3.08417,-1.60686,2.28303\H,0,2.54324,-2.43497,1.81302\C,0,3.3
 9486,-1.34119,-1.10848\C,0,4.73265,-1.64714,-0.77469\H,0,5.17675,-1.23
 559,0.13698\C,0,5.49399,-2.49143,-1.59871\H,0,6.52899,-2.72315,-1.3263
 8\C,0,4.92952,-3.0409,-2.76077\H,0,5.52301,-3.70284,-3.3998\C,0,3.5975
 5,-2.74742,-3.09393\H,0,3.14579,-3.18071,-3.99211\C,0,2.8321,-1.90665,
 -2.27112\H,0,1.78942,-1.70111,-2.52721\\Version=EM64L-G09RevD.01\State
 =1-A\HF=-2064.2396244\RMSD=5.733e-09\Dipole=-0.0000915,-0.4298846,0.00
 0391\Quadrupole=19.0459677,-9.5100909,-9.5358768,-0.0041788,3.9072531,
 -0.0041193\PG=C01 [X(C39H28O3P2Ru1Zn1)]\\@


 REVOLUTIONS HAVE NEVER LIGHTENED THE BURDEN OF TYRANNY:
 THEY HAVE MERELY SHIFTED IT TO OTHER SHOULDERS.
                                   -- G. B. SHAW (1903)
 Job cpu time:       0 days  1 hours 36 minutes 31.9 seconds.
 File lengths (MBytes):  RWF=    863 Int=      0 D2E=      0 Chk=     26 Scr=      1
 Normal termination of Gaussian 09 at Sat Apr 11 14:05:15 2020.
